
                                 *****************
                                 * O   R   C   A *
                                 *****************

           --- An Ab Initio, DFT and Semiempirical electronic structure package ---

                  #######################################################
                  #                        -***-                        #
                  #  Department of molecular theory and spectroscopy    #
                  #              Directorship: Frank Neese              #
                  # Max Planck Institute for Chemical Energy Conversion #
                  #                  D-45470 Muelheim/Ruhr              #
                  #                       Germany                       #
                  #                                                     #
                  #                  All rights reserved                #
                  #                        -***-                        #
                  #######################################################


                         Program Version 4.0.1 -  RELEASE  -


 With contributions from (in alphabetic order):
   Daniel Aravena         : Magnetic Properties
   Michael Atanasov       : Ab Initio Ligand Field Theory
   Ute Becker             : Parallelization
   Martin Brehm           : Molecular dynamics
   Dmytro Bykov           : SCF Hessian
   Vijay G. Chilkuri      : MRCI spin determinant printing
   Dipayan Datta          : RHF DLPNO-CCSD density
   Achintya Kumar Dutta   : EOM-CC, STEOM-CC
   Dmitry Ganyushin       : Spin-Orbit,Spin-Spin,Magnetic field MRCI
   Yang Guo               : DLPNO-NEVPT2, CIM, IAO-localization
   Andreas Hansen         : Spin unrestricted coupled pair/coupled cluster methods
   Lee Huntington         : MR-EOM, pCC
   Robert Izsak           : Overlap fitted RIJCOSX, COSX-SCS-MP3, EOM
   Christian Kollmar      : KDIIS, OOCD, Brueckner-CCSD(T), CCSD density
   Simone Kossmann        : Meta GGA functionals, TD-DFT gradient, OOMP2, MP2 Hessian
   Martin Krupicka        : AUTO-CI
   Dagmar Lenk            : GEPOL surface
   Dimitrios Liakos       : Extrapolation schemes; parallel MDCI
   Dimitrios Manganas     : ROCIS; embedding schemes
   Dimitrios Pantazis     : SARC Basis sets
   Taras Petrenko         : DFT Hessian,TD-DFT gradient, ASA, ECA, R-Raman, ABS, FL, XAS/XES, NRVS
   Peter Pinski           : DLPNO-MP2
   Christoph Reimann      : Effective Core Potentials
   Marius Retegan         : Local ZFS, SOC
   Christoph Riplinger    : Optimizer, TS searches, QM/MM, DLPNO-CCSD(T), (RO)-DLPNO pert. Triples
   Tobias Risthaus        : Range-separated hybrids, TD-DFT gradient, RPA, STAB
   Michael Roemelt        : Restricted open shell CIS
   Masaaki Saitow         : Open-shell DLPNO
   Barbara Sandhoefer     : DKH picture change effects
   Kantharuban Sivalingam : CASSCF convergence, NEVPT2, FIC-MRCI
   Georgi Stoychev        : AutoAux
   Boris Wezisla          : Elementary symmetry handling
   Frank Wennmohs         : Technical directorship


 We gratefully acknowledge several colleagues who have allowed us to
 interface, adapt or use parts of their codes:
   Stefan Grimme, W. Hujo, H. Kruse,             : VdW corrections, initial TS optimization,
                  C. Bannwarth                     DFT functionals, gCP, sTDA/sTD-DF
   Ed Valeev                                     : LibInt (2-el integral package), F12 methods
   Garnet Chan, S. Sharma, J. Yang, R. Olivares  : DMRG
   Ulf Ekstrom                                   : XCFun DFT Library
   Mihaly Kallay                                 : mrcc  (arbitrary order and MRCC methods)
   Andreas Klamt, Michael Diedenhofen            : otool_cosmo (COSMO solvation model)
   Jiri Pittner, Ondrej Demel                    : Mk-CCSD
   Frank Weinhold                                : gennbo (NPA and NBO analysis)
   Christopher J. Cramer and Donald G. Truhlar   : smd solvation model


 Your calculation uses the libint2 library for the computation of 2-el integrals
 For citations please refer to: http://libint.valeyev.net

 This ORCA versions uses:
   CBLAS   interface :  Fast vector & matrix operations
   LAPACKE interface :  Fast linear algebra routines
   SCALAPACK package :  Parallel linear algebra routines




*****************************************
The coordinations will be read from file: opt.xyz
*****************************************


Your calculation utilizes the geometrical counterpoise correction gCP
Please cite in your paper:
H.Kruse, S. Grimme J.Chem.Phys., 136, (2012), 154101 
   

Your calculation utilizes the atom-pairwise dispersion correction
with the Becke-Johnson damping scheme (D3BJ)
Cite in your paper:
S.Grimme, S.Ehrlich, L.Goerigk, J Comput Chem, (2011), 32, 1456–1465 
S.Grimme, J.Antony, S.Ehrlich and H.Krieg, J.Chem.Phys., 132, (2010), 154104 
   

Your calculation utilizes the basis: def2-TZVP
   F. Weigend and R. Ahlrichs, Phys. Chem. Chem. Phys. 7, 3297 (2005).

Your calculation utilizes the auxiliary basis: def2/J
   F. Weigend, Phys. Chem. Chem. Phys. 8, 1057 (2006).

cite the ECPs for Ru [Def2-ECP] as follows:
Ce-Yb(ecp-28): M. Dolg, H. Stoll, H.Preuss, J. Chem. Phys., 1989, 90, 1730-1734.
Y-Cd(ecp-28), Hf-Hg(ecp-46): D. Andrae,U. Haeussermann, M. Dolg, H. Stoll, H. Preuss, Theor. Chim. Acta, 1990, 77, 123-141.
In-Sb(ecp-28), Tl-Bi(ecp-46): B. Metz, H. Stoll, M. Dolg, J. Chem. Phys., 2000, 113, 2563-2569.
Te-Xe(ecp-28), Po-Rn(ecp-46): K. A. Peterson, D. Figgen, E. Goll, H. Stoll, M. Dolg, J. Chem. Phys., 2003, 119, 11113-11123.
Rb(ecp-28), Cs(ecp-46): T. Leininger, A. Nicklass, W. Kuechle, H. Stoll, M. Dolg, A. Bergner, Chem. Phys. Lett., 1996, 255, 274-280.
Sr(ecp-28), Ba(ecp-46): M. Kaupp, P. V. Schleyer, H. Stoll and H. Preuss, J. Chem. Phys., 1991, 94, 1360-1366.
La(ecp-46): M. Dolg, H. Stoll, A. Savin, H. Preuss, Theor. Chim. Acta, 1989, 75, 173-194.
Lu(ecp-28): X. Cao, M. Dolg, J. Chem. Phys., 2001, 115, 7348-7355.

ECP parameters for Ru [Def2-ECP] have been obtained from:
TURBOMOLE (7.0.2)

================================================================================
                                        WARNINGS
                       Please study these warnings very carefully!
================================================================================

Warning: TCutStore was < 0. Adjusted to Thresh (uncritical)

WARNING: The environment variable RSH_COMMAND is not set!
  ===> : All Displacements for the Numerical Hessian calculation
         will be started on localhost

WARNING: Geometry Optimization
  ===> : Switching off AutoStart
         For restart on a previous wavefunction, please use MOREAD

INFO   : the flag for use of LIBINT has been found!

================================================================================
                                       INPUT FILE
================================================================================
NAME = opt.inp
|  1> # 18.12
|  2> ! OPT NUMFREQ RKS RI TPSS D3BJ ABC DEF2-ECP GCP(DFT/TZ) TightSCF SlowConv NOFINALGRID GRID6
|  3>  
|  4> * xyzfile 0 1 opt.xyz
|  5> 
|  6> %scf
|  7> MaxIter 300
|  8> UseCheapInts false
|  9> end
| 10>  
| 11> %pal
| 12> nprocs 32
| 13> end
| 14> 
| 15> %geom
| 16> MaxIter 200
| 17> end
| 18> 
| 19> %basis
| 20> Basis "def2-TZVP"
| 21> end
| 22> 
| 23> 
| 24>                          ****END OF INPUT****
================================================================================

                       *****************************
                       * Geometry Optimization Run *
                       *****************************

Geometry optimization settings:
Update method            Update   .... BFGS
Choice of coordinates    CoordSys .... Redundant Internals
Initial Hessian          InHess   .... Almoef's Model

Convergence Tolerances:
Energy Change            TolE     ....  5.0000e-06 Eh
Max. Gradient            TolMAXG  ....  3.0000e-04 Eh/bohr
RMS Gradient             TolRMSG  ....  1.0000e-04 Eh/bohr
Max. Displacement        TolMAXD  ....  4.0000e-03 bohr
RMS Displacement         TolRMSD  ....  2.0000e-03 bohr

------------------------------------------------------------------------------
                        ORCA OPTIMIZATION COORDINATE SETUP
------------------------------------------------------------------------------

The optimization will be done in new redundant internal coordinates
Making redundant internal coordinates   ...  (new redundants) done
Evaluating the initial hessian          ...  (Almloef) done
Evaluating the coordinates              ...  done
Calculating the B-matrix                .... done
Calculating the G-matrix                .... done
Diagonalizing the G-matrix              .... done
Small eigenvalue found = 1.300e-03
Small eigenvalue found = 1.816e-03
Small eigenvalue found = 2.517e-03
Small eigenvalue found = 5.089e-03
Small eigenvalue found = 9.852e-03
Small eigenvalue found = 9.931e-03
Small eigenvalue found = 1.846e-02
Small eigenvalue found = 2.234e-02
Small eigenvalue found = 2.603e-02
Small eigenvalue found = 2.787e-02
Small eigenvalue found = 2.973e-02
The first mode is                       ....  219
The number of degrees of freedom        ....  216

    -----------------------------------------------------------------
                    Redundant Internal Coordinates


    -----------------------------------------------------------------
         Definition                    Initial Value    Approx d2E/dq
    -----------------------------------------------------------------
      1. B(C   1,C   0)                  1.3915         0.621389   
      2. B(C   2,C   1)                  1.3914         0.621596   
      3. B(N   3,C   2)                  1.3605         0.623657   
      4. B(C   4,N   3)                  1.3605         0.623658   
      5. B(C   5,C   4)                  1.3914         0.621601   
      6. B(C   5,C   0)                  1.3915         0.621392   
      7. B(C   6,C   4)                  1.5006         0.416197   
      8. B(C   7,C   2)                  1.5006         0.416198   
      9. B(N   8,C   6)                  1.4562         0.438734   
     10. B(N   9,C   7)                  1.4562         0.438733   
     11. B(C  10,N   8)                  1.3722         0.597376   
     12. B(N  11,C  10)                  1.3762         0.588610   
     13. B(C  12,N  11)                  1.3940         0.551468   
     14. B(C  13,C  12)                  1.3569         0.705568   
     15. B(C  13,N   8)                  1.3893         0.561052   
     16. B(C  14,N   9)                  1.3722         0.597368   
     17. B(N  15,C  14)                  1.3762         0.588657   
     18. B(C  16,N  15)                  1.3940         0.551475   
     19. B(C  17,N   9)                  1.3893         0.561042   
     20. B(C  17,C  16)                  1.3569         0.705565   
     21. B(C  18,N  15)                  1.4376         0.469822   
     22. B(C  19,N  11)                  1.4376         0.469795   
     23. B(C  20,C  18)                  1.3993         0.603837   
     24. B(C  21,C  20)                  1.3965         0.610160   
     25. B(C  22,C  21)                  1.3971         0.608642   
     26. B(C  23,C  22)                  1.3981         0.606447   
     27. B(C  24,C  23)                  1.3966         0.609807   
     28. B(C  24,C  18)                  1.3997         0.602814   
     29. B(C  25,C  19)                  1.3993         0.603830   
     30. B(C  26,C  25)                  1.3964         0.610168   
     31. B(C  27,C  26)                  1.3971         0.608649   
     32. B(C  28,C  27)                  1.3981         0.606455   
     33. B(C  29,C  28)                  1.3966         0.609798   
     34. B(C  29,C  19)                  1.3998         0.602770   
     35. B(C  30,C  20)                  1.5067         0.406995   
     36. B(C  31,C  24)                  1.5044         0.410397   
     37. B(C  32,C  22)                  1.5094         0.403016   
     38. B(C  33,C  25)                  1.5067         0.406998   
     39. B(C  34,C  29)                  1.5044         0.410416   
     40. B(C  35,C  27)                  1.5093         0.403018   
     41. B(H  36,C   0)                  1.0856         0.365958   
     42. B(H  37,C   1)                  1.0858         0.365682   
     43. B(H  38,C   5)                  1.0858         0.365682   
     44. B(H  39,C   6)                  1.0919         0.357626   
     45. B(H  40,C   6)                  1.1035         0.342655   
     46. B(H  41,C   7)                  1.0919         0.357626   
     47. B(H  42,C   7)                  1.1035         0.342653   
     48. B(H  43,C  12)                  1.0780         0.376261   
     49. B(H  44,C  13)                  1.0786         0.375502   
     50. B(H  45,C  16)                  1.0780         0.376261   
     51. B(H  46,C  17)                  1.0786         0.375502   
     52. B(H  47,C  21)                  1.0881         0.362630   
     53. B(H  48,C  23)                  1.0884         0.362158   
     54. B(H  49,C  26)                  1.0881         0.362628   
     55. B(H  50,C  28)                  1.0884         0.362160   
     56. B(H  51,C  30)                  1.0947         0.353941   
     57. B(H  52,C  30)                  1.0928         0.356370   
     58. B(H  53,C  30)                  1.0967         0.351391   
     59. B(H  54,C  31)                  1.0935         0.355483   
     60. B(H  55,C  31)                  1.0978         0.349940   
     61. B(H  56,C  31)                  1.0964         0.351745   
     62. B(H  57,C  32)                  1.0975         0.350252   
     63. B(H  58,C  32)                  1.0947         0.353962   
     64. B(H  59,C  32)                  1.0945         0.354225   
     65. B(H  60,C  33)                  1.0928         0.356367   
     66. B(H  61,C  33)                  1.0967         0.351397   
     67. B(H  62,C  33)                  1.0947         0.353922   
     68. B(H  63,C  34)                  1.0964         0.351734   
     69. B(H  64,C  34)                  1.0935         0.355477   
     70. B(H  65,C  34)                  1.0978         0.349937   
     71. B(H  66,C  35)                  1.0947         0.353962   
     72. B(H  67,C  35)                  1.0945         0.354224   
     73. B(H  68,C  35)                  1.0975         0.350253   
     74. B(Ru 69,C  14)                  2.0457         0.568436   
     75. B(Ru 69,C  10)                  2.0457         0.568426   
     76. B(Ru 69,N   3)                  2.1743         0.317462   
     77. B(H  70,Ru 69)                  1.7008         0.386449   
     78. B(H  71,Ru 69)                  1.7008         0.386473   
     79. B(C  72,Ru 69)                  1.8326         1.243808   
     80. B(O  73,C  72)                  1.1697         1.257126   
     81. A(C   5,C   0,H  36)          121.0742         0.354009   
     82. A(C   1,C   0,H  36)          121.0742         0.354009   
     83. A(C   1,C   0,C   5)          117.8516         0.434416   
     84. A(C   0,C   1,C   2)          119.8606         0.434442   
     85. A(C   2,C   1,H  37)          119.0913         0.353984   
     86. A(C   0,C   1,H  37)          121.0467         0.353964   
     87. A(C   1,C   2,C   7)          121.0767         0.404484   
     88. A(C   1,C   2,N   3)          122.5193         0.431882   
     89. A(N   3,C   2,C   7)          116.3863         0.402123   
     90. A(C   2,N   3,Ru 69)          121.3104         0.427151   
     91. A(C   2,N   3,C   4)          117.3816         0.429316   
     92. A(C   4,N   3,Ru 69)          121.3080         0.427151   
     93. A(N   3,C   4,C   5)          122.5199         0.431883   
     94. A(N   3,C   4,C   6)          116.3844         0.402123   
     95. A(C   5,C   4,C   6)          121.0777         0.404485   
     96. A(C   4,C   5,H  38)          119.0915         0.353984   
     97. A(C   0,C   5,C   4)          119.8601         0.434443   
     98. A(C   0,C   5,H  38)          121.0469         0.353964   
     99. A(C   4,C   6,H  39)          110.8450         0.329768   
    100. A(C   4,C   6,H  40)          107.4924         0.327449   
    101. A(N   8,C   6,H  40)          106.4508         0.328326   
    102. A(N   8,C   6,H  39)          108.8401         0.330654   
    103. A(H  39,C   6,H  40)          111.6070         0.288272   
    104. A(C   4,C   6,N   8)          111.5369         0.378163   
    105. A(C   2,C   7,N   9)          111.5356         0.378163   
    106. A(H  41,C   7,H  42)          111.6075         0.288272   
    107. A(C   2,C   7,H  42)          107.4948         0.327449   
    108. A(N   9,C   7,H  42)          106.4512         0.328326   
    109. A(N   9,C   7,H  41)          108.8398         0.330654   
    110. A(C   2,C   7,H  41)          110.8434         0.329768   
    111. A(C   6,N   8,C  10)          119.9810         0.400227   
    112. A(C  10,N   8,C  13)          112.6417         0.418042   
    113. A(C   6,N   8,C  13)          127.3233         0.395839   
    114. A(C  14,N   9,C  17)          112.6413         0.418039   
    115. A(C   7,N   9,C  14)          119.9815         0.400226   
    116. A(C   7,N   9,C  17)          127.3234         0.395838   
    117. A(N   8,C  10,N  11)          102.6816         0.421632   
    118. A(N  11,C  10,Ru 69)          136.0913         0.472022   
    119. A(N   8,C  10,Ru 69)          121.1385         0.473306   
    120. A(C  10,N  11,C  12)          111.7264         0.415666   
    121. A(C  12,N  11,C  19)          123.5202         0.399414   
    122. A(C  10,N  11,C  19)          124.7525         0.404028   
    123. A(N  11,C  12,H  43)          121.6990         0.346435   
    124. A(N  11,C  12,C  13)          106.9020         0.432169   
    125. A(C  13,C  12,H  43)          131.3990         0.363459   
    126. A(C  12,C  13,H  44)          131.2526         0.363334   
    127. A(N   8,C  13,C  12)          106.0446         0.433510   
    128. A(N   8,C  13,H  44)          122.7013         0.347322   
    129. A(N   9,C  14,N  15)          102.6814         0.421637   
    130. A(N  15,C  14,Ru 69)          136.0866         0.472031   
    131. A(N   9,C  14,Ru 69)          121.1405         0.473306   
    132. A(C  16,N  15,C  18)          123.5235         0.399419   
    133. A(C  14,N  15,C  18)          124.7479         0.404037   
    134. A(C  14,N  15,C  16)          111.7278         0.415673   
    135. A(C  17,C  16,H  45)          131.3995         0.363459   
    136. A(N  15,C  16,C  17)          106.9012         0.432169   
    137. A(N  15,C  16,H  45)          121.6993         0.346435   
    138. A(N   9,C  17,C  16)          106.0448         0.433508   
    139. A(C  16,C  17,H  46)          131.2525         0.363333   
    140. A(N   9,C  17,H  46)          122.7013         0.347321   
    141. A(N  15,C  18,C  20)          118.6084         0.408487   
    142. A(C  20,C  18,C  24)          122.4893         0.429834   
    143. A(N  15,C  18,C  24)          118.8955         0.408364   
    144. A(C  25,C  19,C  29)          122.4881         0.429827   
    145. A(N  11,C  19,C  29)          118.8998         0.408355   
    146. A(N  11,C  19,C  25)          118.6050         0.408482   
    147. A(C  21,C  20,C  30)          121.3867         0.401575   
    148. A(C  18,C  20,C  30)          120.8167         0.400839   
    149. A(C  18,C  20,C  21)          117.7796         0.430769   
    150. A(C  22,C  21,H  47)          119.5022         0.352224   
    151. A(C  20,C  21,H  47)          118.7995         0.352372   
    152. A(C  20,C  21,C  22)          121.6884         0.431383   
    153. A(C  23,C  22,C  32)          120.6787         0.400450   
    154. A(C  21,C  22,C  32)          120.6875         0.400705   
    155. A(C  21,C  22,C  23)          118.6111         0.430910   
    156. A(C  24,C  23,H  48)          118.7665         0.352260   
    157. A(C  22,C  23,H  48)          119.4734         0.351931   
    158. A(C  22,C  23,C  24)          121.7593         0.431058   
    159. A(C  23,C  24,C  31)          121.6675         0.402124   
    160. A(C  18,C  24,C  31)          120.6501         0.401307   
    161. A(C  18,C  24,C  23)          117.6693         0.430593   
    162. A(C  26,C  25,C  33)          121.3857         0.401577   
    163. A(C  19,C  25,C  33)          120.8159         0.400839   
    164. A(C  19,C  25,C  26)          117.7808         0.430769   
    165. A(C  27,C  26,H  49)          119.5022         0.352224   
    166. A(C  25,C  26,H  49)          118.7997         0.352372   
    167. A(C  25,C  26,C  27)          121.6882         0.431385   
    168. A(C  28,C  27,C  35)          120.6790         0.400452   
    169. A(C  26,C  27,C  35)          120.6875         0.400706   
    170. A(C  26,C  27,C  28)          118.6110         0.430912   
    171. A(C  27,C  28,C  29)          121.7602         0.431058   
    172. A(C  29,C  28,H  50)          118.7660         0.352259   
    173. A(C  27,C  28,H  50)          119.4731         0.351932   
    174. A(C  28,C  29,C  34)          121.6653         0.402126   
    175. A(C  19,C  29,C  34)          120.6538         0.401305   
    176. A(C  19,C  29,C  28)          117.6687         0.430587   
    177. A(H  52,C  30,H  53)          108.3863         0.289252   
    178. A(H  51,C  30,H  53)          107.3393         0.288942   
    179. A(C  20,C  30,H  53)          111.4966         0.327601   
    180. A(H  51,C  30,H  52)          108.5040         0.289580   
    181. A(C  20,C  30,H  52)          110.4244         0.328362   
    182. A(C  20,C  30,H  51)          110.5773         0.327992   
    183. A(H  55,C  31,H  56)          107.7516         0.288473   
    184. A(H  54,C  31,H  56)          108.5701         0.289184   
    185. A(C  24,C  31,H  56)          111.4823         0.328106   
    186. A(H  54,C  31,H  55)          109.1963         0.288951   
    187. A(C  24,C  31,H  55)          109.1416         0.327827   
    188. A(C  24,C  31,H  54)          110.6298         0.328678   
    189. A(H  58,C  32,H  59)          108.4578         0.289308   
    190. A(H  57,C  32,H  59)          107.5148         0.288831   
    191. A(C  22,C  32,H  59)          111.2840         0.327504   
    192. A(H  57,C  32,H  58)          107.5192         0.288798   
    193. A(C  22,C  32,H  58)          111.3030         0.327464   
    194. A(C  22,C  32,H  57)          110.6019         0.326896   
    195. A(H  61,C  33,H  62)          107.3392         0.288940   
    196. A(H  60,C  33,H  62)          108.5039         0.289577   
    197. A(C  25,C  33,H  62)          110.5760         0.327989   
    198. A(H  60,C  33,H  61)          108.3863         0.289252   
    199. A(C  25,C  33,H  61)          111.4978         0.327602   
    200. A(C  25,C  33,H  60)          110.4246         0.328362   
    201. A(H  64,C  34,H  65)          109.1974         0.288950   
    202. A(H  63,C  34,H  65)          107.7532         0.288472   
    203. A(C  29,C  34,H  65)          109.1401         0.327829   
    204. A(H  63,C  34,H  64)          108.5699         0.289182   
    205. A(C  29,C  34,H  64)          110.6293         0.328680   
    206. A(C  29,C  34,H  63)          111.4819         0.328106   
    207. A(H  67,C  35,H  68)          107.5148         0.288831   
    208. A(H  66,C  35,H  68)          107.5193         0.288798   
    209. A(C  27,C  35,H  68)          110.6018         0.326897   
    210. A(H  66,C  35,H  67)          108.4577         0.289308   
    211. A(C  27,C  35,H  67)          111.2840         0.327504   
    212. A(C  27,C  35,H  66)          111.3029         0.327465   
    213. A(H  71,Ru 69,C  72)           90.2707         0.528132   
    214. A(H  70,Ru 69,C  72)           90.2695         0.528125   
    215. A(C  10,Ru 69,C  72)           94.5266         0.617336   
    216. A(C  14,Ru 69,H  71)           88.4322         0.456810   
    217. A(C  10,Ru 69,H  71)           91.5266         0.456809   
    218. A(N   3,Ru 69,H  71)           89.7305         0.409496   
    219. A(C  14,Ru 69,H  70)           91.5221         0.456805   
    220. A(C  10,Ru 69,H  70)           88.4337         0.456804   
    221. A(N   3,Ru 69,H  70)           89.7293         0.409492   
    222. A(C  14,Ru 69,C  72)           94.5336         0.617338   
    223. A(C  10,Ru 69,C  14)          170.9397         0.531526   
    224. A(N   3,Ru 69,C  14)           85.4715         0.474603   
    225. A(N   3,Ru 69,C  10)           85.4682         0.474601   
    226. L(Ru 69,C  72,O  73,C  10, 2) 180.0000         0.631983   
    227. L(Ru 69,C  72,O  73,C  10, 1) 179.9985         0.631983   
    228. D(C   2,C   1,C   0,C   5)      0.3797         0.026726   
    229. D(C   2,C   1,C   0,H  36)   -179.6237         0.026726   
    230. D(H  37,C   1,C   0,C   5)    179.9438         0.026726   
    231. D(H  37,C   1,C   0,H  36)     -0.0596         0.026726   
    232. D(N   3,C   2,C   1,C   0)     -0.7929         0.026745   
    233. D(C   7,C   2,C   1,C   0)    177.6214         0.026745   
    234. D(N   3,C   2,C   1,H  37)    179.6345         0.026745   
    235. D(C   7,C   2,C   1,H  37)     -1.9512         0.026745   
    236. D(Ru 69,N   3,C   2,C   1)   -179.6019         0.031524   
    237. D(C   4,N   3,C   2,C   1)      0.3944         0.031524   
    238. D(C   4,N   3,C   2,C   7)   -178.0896         0.031524   
    239. D(Ru 69,N   3,C   2,C   7)      1.9141         0.031524   
    240. D(C   5,C   4,N   3,C   2)      0.4015         0.031524   
    241. D(C   6,C   4,N   3,C   2)   -178.0702         0.031524   
    242. D(C   6,C   4,N   3,Ru 69)      1.9262         0.031524   
    243. D(C   5,C   4,N   3,Ru 69)   -179.6021         0.031524   
    244. D(C   4,C   5,C   0,H  36)   -179.6216         0.026726   
    245. D(H  38,C   5,C   4,N   3)    179.6367         0.026745   
    246. D(H  38,C   5,C   4,C   6)     -1.9619         0.026745   
    247. D(C   0,C   5,C   4,N   3)     -0.7942         0.026745   
    248. D(H  38,C   5,C   0,H  36)     -0.0610         0.026726   
    249. D(H  38,C   5,C   0,C   1)    179.9356         0.026726   
    250. D(C   0,C   5,C   4,C   6)    177.6073         0.026745   
    251. D(C   4,C   5,C   0,C   1)      0.3750         0.026726   
    252. D(H  40,C   6,C   4,N   3)     57.2016         0.012816   
    253. D(H  39,C   6,C   4,C   5)      0.9236         0.012816   
    254. D(H  39,C   6,C   4,N   3)    179.4190         0.012816   
    255. D(H  40,C   6,C   4,C   5)   -121.2938         0.012816   
    256. D(N   8,C   6,C   4,C   5)    122.3734         0.012816   
    257. D(N   8,C   6,C   4,N   3)    -59.1312         0.012816   
    258. D(N   9,C   7,C   2,C   1)    122.3732         0.012816   
    259. D(H  42,C   7,C   2,N   3)     57.2147         0.012816   
    260. D(H  42,C   7,C   2,C   1)   -121.2927         0.012816   
    261. D(H  41,C   7,C   2,N   3)    179.4332         0.012816   
    262. D(H  41,C   7,C   2,C   1)      0.9258         0.012816   
    263. D(N   9,C   7,C   2,N   3)    -59.1194         0.012816   
    264. D(C  13,N   8,C   6,H  39)      3.5343         0.016413   
    265. D(C  13,N   8,C   6,H  40)    123.9615         0.016413   
    266. D(C  10,N   8,C   6,H  40)    -53.1587         0.016413   
    267. D(C  10,N   8,C   6,H  39)   -173.5859         0.016413   
    268. D(C  13,N   8,C   6,C   4)   -119.0722         0.016413   
    269. D(C  10,N   8,C   6,C   4)     63.8076         0.016413   
    270. D(C  17,N   9,C   7,H  42)    123.9840         0.016413   
    271. D(C  17,N   9,C   7,C   2)   -119.0473         0.016413   
    272. D(C  17,N   9,C   7,H  41)      3.5560         0.016413   
    273. D(C  14,N   9,C   7,H  42)    -53.1437         0.016413   
    274. D(C  14,N   9,C   7,C   2)     63.8250         0.016413   
    275. D(C  14,N   9,C   7,H  41)   -173.5716         0.016413   
    276. D(Ru 69,C  10,N   8,C  13)    176.6321         0.028737   
    277. D(Ru 69,C  10,N   8,C   6)     -5.8489         0.028737   
    278. D(N  11,C  10,N   8,C  13)     -0.4639         0.028737   
    279. D(N  11,C  10,N   8,C   6)    177.0550         0.028737   
    280. D(C  19,N  11,C  10,Ru 69)      4.0321         0.027843   
    281. D(C  19,N  11,C  10,N   8)   -179.5527         0.027843   
    282. D(C  12,N  11,C  10,Ru 69)   -176.3060         0.027843   
    283. D(C  12,N  11,C  10,N   8)      0.1092         0.027843   
    284. D(H  43,C  12,N  11,C  19)     -0.0648         0.024246   
    285. D(H  43,C  12,N  11,C  10)   -179.7317         0.024246   
    286. D(C  13,C  12,N  11,C  19)    179.9448         0.024246   
    287. D(C  13,C  12,N  11,C  10)      0.2780         0.024246   
    288. D(H  44,C  13,N   8,C   6)      2.9467         0.025145   
    289. D(C  12,C  13,N   8,C  10)      0.6494         0.025145   
    290. D(C  12,C  13,N   8,C   6)   -176.6479         0.025145   
    291. D(H  44,C  13,C  12,H  43)     -0.0725         0.035109   
    292. D(H  44,C  13,C  12,N  11)    179.9166         0.035109   
    293. D(N   8,C  13,C  12,H  43)    179.4738         0.035109   
    294. D(N   8,C  13,C  12,N  11)     -0.5371         0.035109   
    295. D(H  44,C  13,N   8,C  10)   -179.7559         0.025145   
    296. D(Ru 69,C  14,N   9,C  17)    176.5884         0.028736   
    297. D(Ru 69,C  14,N   9,C   7)     -5.8862         0.028736   
    298. D(N  15,C  14,N   9,C  17)     -0.4617         0.028736   
    299. D(N  15,C  14,N   9,C   7)    177.0637         0.028736   
    300. D(C  18,N  15,C  14,Ru 69)      4.0787         0.027847   
    301. D(C  18,N  15,C  14,N   9)   -179.5625         0.027847   
    302. D(C  16,N  15,C  14,Ru 69)   -176.2273         0.027847   
    303. D(C  16,N  15,C  14,N   9)      0.1316         0.027847   
    304. D(H  45,C  16,N  15,C  18)     -0.0516         0.024247   
    305. D(H  45,C  16,N  15,C  14)   -179.7501         0.024247   
    306. D(C  17,C  16,N  15,C  18)    179.9374         0.024247   
    307. D(C  17,C  16,N  15,C  14)      0.2389         0.024247   
    308. D(H  46,C  17,C  16,H  45)     -0.0851         0.035109   
    309. D(H  46,C  17,C  16,N  15)    179.9273         0.035109   
    310. D(N   9,C  17,C  16,H  45)    179.4881         0.035109   
    311. D(N   9,C  17,C  16,N  15)     -0.4994         0.035109   
    312. D(H  46,C  17,N   9,C  14)   -179.7577         0.025144   
    313. D(H  46,C  17,N   9,C   7)      2.9379         0.025144   
    314. D(C  16,C  17,N   9,C  14)      0.6236         0.025144   
    315. D(C  16,C  17,N   9,C   7)   -176.6808         0.025144   
    316. D(C  24,C  18,N  15,C  16)     94.0665         0.017399   
    317. D(C  24,C  18,N  15,C  14)    -86.2744         0.017399   
    318. D(C  20,C  18,N  15,C  16)    -85.0124         0.017399   
    319. D(C  20,C  18,N  15,C  14)     94.6467         0.017399   
    320. D(C  29,C  19,N  11,C  10)    -86.4650         0.017397   
    321. D(C  29,C  19,N  11,C  12)     93.9117         0.017397   
    322. D(C  25,C  19,N  11,C  12)    -85.1485         0.017397   
    323. D(C  25,C  19,N  11,C  10)     94.4748         0.017397   
    324. D(C  30,C  20,C  18,C  24)    178.7530         0.025154   
    325. D(C  21,C  20,C  18,N  15)    179.2730         0.025154   
    326. D(C  30,C  20,C  18,N  15)     -2.2031         0.025154   
    327. D(C  21,C  20,C  18,C  24)      0.2291         0.025154   
    328. D(H  47,C  21,C  20,C  30)      0.6115         0.025713   
    329. D(C  22,C  21,C  20,C  30)   -178.2428         0.025713   
    330. D(C  22,C  21,C  20,C  18)      0.2722         0.025713   
    331. D(H  47,C  21,C  20,C  18)    179.1265         0.025713   
    332. D(C  32,C  22,C  21,H  47)     -1.1503         0.025578   
    333. D(C  32,C  22,C  21,C  20)    177.6962         0.025578   
    334. D(C  23,C  22,C  21,H  47)   -179.4313         0.025578   
    335. D(C  23,C  22,C  21,C  20)     -0.5848         0.025578   
    336. D(H  48,C  23,C  22,C  32)      1.7990         0.025384   
    337. D(H  48,C  23,C  22,C  21)   -179.9198         0.025384   
    338. D(C  24,C  23,C  22,C  32)   -177.8690         0.025384   
    339. D(C  24,C  23,C  22,C  21)      0.4122         0.025384   
    340. D(C  31,C  24,C  23,H  48)     -0.9179         0.025682   
    341. D(C  31,C  24,C  23,C  22)    178.7524         0.025682   
    342. D(C  18,C  24,C  23,H  48)   -179.6085         0.025682   
    343. D(C  18,C  24,C  23,C  22)      0.0618         0.025682   
    344. D(C  31,C  24,C  18,C  20)   -179.0962         0.025064   
    345. D(C  31,C  24,C  18,N  15)      1.8625         0.025064   
    346. D(C  23,C  24,C  18,C  20)     -0.3916         0.025064   
    347. D(C  23,C  24,C  18,N  15)   -179.4329         0.025064   
    348. D(C  33,C  25,C  19,C  29)    178.7344         0.025153   
    349. D(C  33,C  25,C  19,N  11)     -2.2409         0.025153   
    350. D(C  26,C  25,C  19,C  29)      0.2387         0.025153   
    351. D(C  26,C  25,C  19,N  11)    179.2634         0.025153   
    352. D(H  49,C  26,C  25,C  19)    179.1185         0.025714   
    353. D(C  27,C  26,C  25,C  33)   -178.2174         0.025714   
    354. D(C  27,C  26,C  25,C  19)      0.2692         0.025714   
    355. D(H  49,C  26,C  25,C  33)      0.6319         0.025714   
    356. D(C  35,C  27,C  26,H  49)     -1.1415         0.025579   
    357. D(C  35,C  27,C  26,C  25)    177.6999         0.025579   
    358. D(C  28,C  27,C  26,H  49)   -179.4283         0.025579   
    359. D(C  28,C  27,C  26,C  25)     -0.5869         0.025579   
    360. D(H  50,C  28,C  27,C  35)      1.8104         0.025384   
    361. D(H  50,C  28,C  27,C  26)   -179.9026         0.025384   
    362. D(C  29,C  28,C  27,C  35)   -177.8739         0.025384   
    363. D(C  29,C  28,C  27,C  26)      0.4131         0.025384   
    364. D(C  34,C  29,C  28,H  50)     -0.8856         0.025681   
    365. D(C  34,C  29,C  28,C  27)    178.8009         0.025681   
    366. D(C  19,C  29,C  28,H  50)   -179.6194         0.025681   
    367. D(C  19,C  29,C  28,C  27)      0.0671         0.025681   
    368. D(C  34,C  29,C  19,C  25)   -179.1496         0.025060   
    369. D(C  34,C  29,C  19,N  11)      1.8285         0.025060   
    370. D(C  28,C  29,C  19,C  25)     -0.4023         0.025060   
    371. D(C  28,C  29,C  19,N  11)   -179.4242         0.025060   
    372. D(H  53,C  30,C  20,C  21)   -117.2337         0.012275   
    373. D(H  53,C  30,C  20,C  18)     64.2962         0.012275   
    374. D(H  52,C  30,C  20,C  21)      3.3240         0.012275   
    375. D(H  52,C  30,C  20,C  18)   -175.1462         0.012275   
    376. D(H  51,C  30,C  20,C  21)    123.4260         0.012275   
    377. D(H  51,C  30,C  20,C  18)    -55.0442         0.012275   
    378. D(H  56,C  31,C  24,C  23)    125.0633         0.012473   
    379. D(H  56,C  31,C  24,C  18)    -56.2846         0.012473   
    380. D(H  55,C  31,C  24,C  23)   -116.0271         0.012473   
    381. D(H  55,C  31,C  24,C  18)     62.6250         0.012473   
    382. D(H  54,C  31,C  24,C  23)      4.1428         0.012473   
    383. D(H  54,C  31,C  24,C  18)   -177.2051         0.012473   
    384. D(H  59,C  32,C  22,C  23)   -152.4756         0.012046   
    385. D(H  59,C  32,C  22,C  21)     29.2791         0.012046   
    386. D(H  58,C  32,C  22,C  23)    -31.3706         0.012046   
    387. D(H  58,C  32,C  22,C  21)    150.3841         0.012046   
    388. D(H  57,C  32,C  22,C  23)     88.0859         0.012046   
    389. D(H  57,C  32,C  22,C  21)    -90.1594         0.012046   
    390. D(H  62,C  33,C  25,C  26)    123.4011         0.012275   
    391. D(H  62,C  33,C  25,C  19)    -55.0398         0.012275   
    392. D(H  61,C  33,C  25,C  26)   -117.2587         0.012275   
    393. D(H  61,C  33,C  25,C  19)     64.3003         0.012275   
    394. D(H  60,C  33,C  25,C  26)      3.2999         0.012275   
    395. D(H  60,C  33,C  25,C  19)   -175.1411         0.012275   
    396. D(H  65,C  34,C  29,C  28)   -116.0442         0.012474   
    397. D(H  65,C  34,C  29,C  19)     62.6523         0.012474   
    398. D(H  64,C  34,C  29,C  28)      4.1259         0.012474   
    399. D(H  64,C  34,C  29,C  19)   -177.1777         0.012474   
    400. D(H  63,C  34,C  29,C  28)    125.0456         0.012474   
    401. D(H  63,C  34,C  29,C  19)    -56.2580         0.012474   
    402. D(H  68,C  35,C  27,C  28)     88.0886         0.012046   
    403. D(H  68,C  35,C  27,C  26)    -90.1627         0.012046   
    404. D(H  67,C  35,C  27,C  28)   -152.4728         0.012046   
    405. D(H  67,C  35,C  27,C  26)     29.2759         0.012046   
    406. D(H  66,C  35,C  27,C  28)    -31.3679         0.012046   
    407. D(H  66,C  35,C  27,C  26)    150.3808         0.012046   
    408. D(C  72,Ru 69,C  14,N  15)    -39.3787         0.003015   
    409. D(H  71,Ru 69,C  14,N  15)   -129.5260         0.003015   
    410. D(H  71,Ru 69,C  14,N   9)     54.6252         0.003015   
    411. D(H  70,Ru 69,C  14,N  15)     51.0125         0.003015   
    412. D(C  10,Ru 69,C  14,N  15)    140.6111         0.003015   
    413. D(C  10,Ru 69,C  14,N   9)    -35.2376         0.003015   
    414. D(N   3,Ru 69,C  14,N  15)    140.6202         0.003015   
    415. D(C  72,Ru 69,C  10,N  11)    -39.3441         0.003014   
    416. D(C  72,Ru 69,C  10,N   8)    144.7428         0.003014   
    417. D(H  71,Ru 69,C  10,N  11)     51.0484         0.003014   
    418. D(H  71,Ru 69,C  10,N   8)   -124.8647         0.003014   
    419. D(H  70,Ru 69,C  10,N  11)   -129.4906         0.003014   
    420. D(H  70,Ru 69,C  10,N   8)     54.5963         0.003014   
    421. D(C  14,Ru 69,C  10,N  11)    140.6660         0.003014   
    422. D(C  14,Ru 69,C  10,N   8)    -35.2471         0.003014   
    423. D(N   3,Ru 69,C  10,N  11)    140.6569         0.003014   
    424. D(N   3,Ru 69,C  10,N   8)    -35.2562         0.003014   
    425. D(N   3,Ru 69,C  14,N   9)    -35.2285         0.003015   
    426. D(H  71,Ru 69,N   3,C   4)    129.1042         0.002034   
    427. D(H  71,Ru 69,N   3,C   2)    -50.8996         0.002034   
    428. D(H  70,Ru 69,N   3,C   4)    -50.8989         0.002034   
    429. D(H  70,Ru 69,C  14,N   9)   -124.8363         0.003015   
    430. D(H  70,Ru 69,N   3,C   2)    129.0973         0.002034   
    431. D(C  14,Ru 69,N   3,C   4)   -142.4472         0.002034   
    432. D(C  14,Ru 69,N   3,C   2)     37.5490         0.002034   
    433. D(C  72,Ru 69,C  14,N   9)    144.7725         0.003015   
    434. D(C  10,Ru 69,N   3,C   4)     37.5514         0.002034   
    435. D(C  10,Ru 69,N   3,C   2)   -142.4524         0.002034   
    -----------------------------------------------------------------

Number of atoms                         .... 74
Number of degrees of freedom            .... 435

         *************************************************************
         *                GEOMETRY OPTIMIZATION CYCLE   1            *
         *************************************************************
---------------------------------
CARTESIAN COORDINATES (ANGSTROEM)
---------------------------------
  C     -0.000743    5.593474    0.000530
  C     -0.479433    4.875194    1.091938
  C     -0.460189    3.484133    1.068130
  N     -0.000463    2.777208    0.000487
  C      0.459057    3.484264   -1.067156
  C      0.478039    4.875327   -1.090923
  C      0.918946    2.682995   -2.249629
  C     -0.920277    2.682763    2.250455
  N      2.001775    1.776969   -1.892953
  N     -2.002844    1.776564    1.893421
  C      1.780652    0.764764   -0.993217
  N      2.989612    0.107408   -0.974838
  C      3.913540    0.702313   -1.832529
  C      3.292174    1.762717   -2.407542
  C     -1.781192    0.764201    0.993987
  N     -2.990130    0.106866    0.974999
  C     -3.914740    0.702202    1.831650
  C     -3.293542    1.762376    2.407274
  C     -3.278066   -1.056117    0.180483
  C      3.278056   -1.055576   -0.180479
  C     -3.128099   -2.319482    0.763086
  C     -3.427333   -3.436725   -0.019415
  C     -3.857447   -3.311955   -1.342823
  C     -3.999633   -2.030085   -1.882558
  C     -3.715734   -0.883240   -1.137796
  C      3.124292   -2.319012   -0.761943
  C      3.424238   -3.436326    0.020177
  C      3.858762   -3.311557    1.342140
  C      4.004747   -2.029637    1.880733
  C      3.720330   -0.882713    1.136285
  C     -2.627451   -2.462980    2.176887
  C     -3.842959    0.494159   -1.729265
  C     -4.125170   -4.535951   -2.184426
  C      2.618381   -2.462473   -2.173871
  C      3.852728    0.494790    1.726345
  C      4.127299   -4.535543    2.183498
  H     -0.000863    6.679081    0.000543
  H     -0.864166    5.382875    1.971273
  H      0.862585    5.383111   -1.970281
  H      1.258035    3.338047   -3.054689
  H      0.074058    2.049457   -2.569855
  H     -1.259745    3.337765    3.055396
  H     -0.075387    2.049366    2.570959
  H      4.912756    0.313935   -1.946197
  H      3.641424    2.488339   -3.125089
  H     -4.914139    0.314058    1.944500
  H     -3.643211    2.488100    3.124513
  H     -3.302761   -4.427684    0.412362
  H     -4.335086   -1.916548   -2.911781
  H      3.296636   -4.427311   -0.410658
  H      4.343927   -1.916100    2.908733
  H     -1.666660   -1.952633    2.298484
  H     -2.494165   -3.517942    2.429033
  H     -3.325960   -2.020690    2.897399
  H     -4.243027    0.441581   -2.745606
  H     -2.852875    0.967666   -1.755126
  H     -4.502163    1.130417   -1.127021
  H     -3.217236   -4.843112   -2.719141
  H     -4.899169   -4.341810   -2.933799
  H     -4.445227   -5.380719   -1.566516
  H      2.482674   -3.517365   -2.425027
  H      3.314917   -2.021534   -2.897108
  H      1.657878   -1.950799   -2.292254
  H      4.511163    1.129182    1.121283
  H      4.256361    0.442006    2.741270
  H      2.863776    0.970475    1.755455
  H      4.904022   -4.342231    2.930262
  H      4.444037   -5.381123    1.564987
  H      3.220622   -4.841015    2.721304
  Ru    -0.000239    0.602903    0.000400
  H     -0.788425    0.610918   -1.506697
  H      0.787858    0.610924    1.507525
  C      0.000077   -1.229678    0.000217
  O      0.000306   -2.399360    0.000086

----------------------------
CARTESIAN COORDINATES (A.U.)
----------------------------
  NO LB      ZA    FRAG     MASS         X           Y           Z
   0 C     6.0000    0    12.011   -0.001404   10.570134    0.001002
   1 C     6.0000    0    12.011   -0.905998    9.212782    2.063463
   2 C     6.0000    0    12.011   -0.869632    6.584058    2.018473
   3 N     7.0000    0    14.007   -0.000876    5.248163    0.000921
   4 C     6.0000    0    12.011    0.867493    6.584305   -2.016633
   5 C     6.0000    0    12.011    0.903362    9.213033   -2.061546
   6 C     6.0000    0    12.011    1.736556    5.070127   -4.251183
   7 C     6.0000    0    12.011   -1.739071    5.069688    4.252744
   8 N     7.0000    0    14.007    3.782807    3.357984   -3.577162
   9 N     7.0000    0    14.007   -3.784826    3.357219    3.578046
  10 C     6.0000    0    12.011    3.364945    1.445194   -1.876908
  11 N     7.0000    0    14.007    5.649547    0.202971   -1.842176
  12 C     6.0000    0    12.011    7.395518    1.327179   -3.462979
  13 C     6.0000    0    12.011    6.221307    3.331053   -4.549595
  14 C     6.0000    0    12.011   -3.365966    1.444130    1.878364
  15 N     7.0000    0    14.007   -5.650526    0.201947    1.842482
  16 C     6.0000    0    12.011   -7.397786    1.326970    3.461317
  17 C     6.0000    0    12.011   -6.223893    3.330407    4.549088
  18 C     6.0000    0    12.011   -6.194648   -1.995772    0.341064
  19 C     6.0000    0    12.011    6.194628   -1.994750   -0.341056
  20 C     6.0000    0    12.011   -5.911250   -4.383186    1.442023
  21 C     6.0000    0    12.011   -6.476721   -6.494469   -0.036689
  22 C     6.0000    0    12.011   -7.289518   -6.258688   -2.537567
  23 C     6.0000    0    12.011   -7.558211   -3.836304   -3.557519
  24 C     6.0000    0    12.011   -7.021720   -1.669083   -2.150122
  25 C     6.0000    0    12.011    5.904055   -4.382298   -1.439864
  26 C     6.0000    0    12.011    6.470873   -6.493716    0.038129
  27 C     6.0000    0    12.011    7.292004   -6.257936    2.536278
  28 C     6.0000    0    12.011    7.567874   -3.835458    3.554070
  29 C     6.0000    0    12.011    7.030405   -1.668085    2.147267
  30 C     6.0000    0    12.011   -4.965162   -4.654358    4.113720
  31 C     6.0000    0    12.011   -7.262140    0.933825   -3.267836
  32 C     6.0000    0    12.011   -7.795442   -8.571706   -4.127967
  33 C     6.0000    0    12.011    4.948022   -4.653400   -4.108021
  34 C     6.0000    0    12.011    7.280601    0.935018    3.262319
  35 C     6.0000    0    12.011    7.799465   -8.570935    4.126213
  36 H     1.0000    0     1.008   -0.001630   12.621634    0.001026
  37 H     1.0000    0     1.008   -1.633037   10.172159    3.725165
  38 H     1.0000    0     1.008    1.630050   10.172605   -3.723291
  39 H     1.0000    0     1.008    2.377342    6.307994   -5.772525
  40 H     1.0000    0     1.008    0.139949    3.872912   -4.856322
  41 H     1.0000    0     1.008   -2.380573    6.307462    5.773861
  42 H     1.0000    0     1.008   -0.142461    3.872740    4.858409
  43 H     1.0000    0     1.008    9.283763    0.593251   -3.677780
  44 H     1.0000    0     1.008    6.881294    4.702280   -5.905561
  45 H     1.0000    0     1.008   -9.286377    0.593484    3.674573
  46 H     1.0000    0     1.008   -6.884670    4.701827    5.904474
  47 H     1.0000    0     1.008   -6.241314   -8.367111    0.779251
  48 H     1.0000    0     1.008   -8.192126   -3.621751   -5.502469
  49 H     1.0000    0     1.008    6.229740   -8.366406   -0.776031
  50 H     1.0000    0     1.008    8.208832   -3.620905    5.496708
  51 H     1.0000    0     1.008   -3.149530   -3.689942    4.343505
  52 H     1.0000    0     1.008   -4.713289   -6.647947    4.590208
  53 H     1.0000    0     1.008   -6.285153   -3.818552    5.475290
  54 H     1.0000    0     1.008   -8.018160    0.834466   -5.188444
  55 H     1.0000    0     1.008   -5.391152    1.828624   -3.316707
  56 H     1.0000    0     1.008   -8.507855    2.136179   -2.129761
  57 H     1.0000    0     1.008   -6.079695   -9.152156   -5.138431
  58 H     1.0000    0     1.008   -9.258088   -8.204832   -5.544077
  59 H     1.0000    0     1.008   -8.400261  -10.168085   -2.960286
  60 H     1.0000    0     1.008    4.691574   -6.646856   -4.582636
  61 H     1.0000    0     1.008    6.264286   -3.820145   -5.474741
  62 H     1.0000    0     1.008    3.132935   -3.686477   -4.331733
  63 H     1.0000    0     1.008    8.524863    2.133845    2.118917
  64 H     1.0000    0     1.008    8.043357    0.835270    5.180250
  65 H     1.0000    0     1.008    5.411752    1.833931    3.317329
  66 H     1.0000    0     1.008    9.267258   -8.205628    5.537392
  67 H     1.0000    0     1.008    8.398012  -10.168849    2.957396
  68 H     1.0000    0     1.008    6.086094   -9.148192    5.142519
  69 Ru   16.0000*   0   101.070   -0.000452    1.139321    0.000756
  70 H     1.0000    0     1.008   -1.489907    1.154469   -2.847245
  71 H     1.0000    0     1.008    1.488835    1.154479    2.848809
  72 C     6.0000    0    12.011    0.000146   -2.323755    0.000411
  73 O     8.0000    0    15.999    0.000579   -4.534134    0.000163
* core charge reduced due to ECP

--------------------------------
INTERNAL COORDINATES (ANGSTROEM)
--------------------------------
 C      0   0   0     0.000000000000     0.00000000     0.00000000
 C      1   0   0     1.391488550838     0.00000000     0.00000000
 C      2   1   0     1.391397861887   119.86059918     0.00000000
 N      3   2   1     1.360496793026   122.51928886   359.20712490
 C      4   3   2     1.360496353121   117.38159805     0.39439655
 C      5   4   3     1.391395657111   122.51989940     0.40153513
 C      5   4   3     1.500590349559   116.38440844   181.92983417
 C      3   2   1     1.500589386352   121.07671314   177.62141913
 N      7   5   4     1.456235540818   111.53685284   300.86875500
 N      8   3   2     1.456235619000   111.53558307   122.37320160
 C      9   7   5     1.372216517358   119.98099832    63.80762789
 N     11   9   7     1.376240635808   102.68156699   177.05503068
 C     12  11   9     1.393983470265   111.72636179     0.10918956
 C     13  12  11     1.356905331288   106.90197836     0.27798790
 C     10   8   3     1.372220150248   119.98152510    63.82498083
 N     15  10   8     1.376219103246   102.68144559   177.06371612
 C     16  15  10     1.393979955294   111.72776530     0.13156176
 C     17  16  15     1.356906718021   106.90124610     0.23891488
 C     16  15  10     1.437599483782   124.74794268   180.43747729
 C     12  11   9     1.437614996686   124.75248016   180.44725054
 C     19  16  15     1.399288067705   118.60842643    94.64671970
 C     21  19  16     1.396452765059   117.77963959   179.27301501
 C     22  21  19     1.397130923766   121.68841860     0.27215053
 C     23  22  21     1.398114081343   118.61112551   359.41521410
 C     24  23  22     1.396610320772   121.75928544     0.41218772
 C     20  12  11     1.399291219032   118.60504059    94.47476409
 C     26  20  12     1.396449117174   117.78081594   179.26335174
 C     27  26  20     1.397127604968   121.68818939     0.26922406
 C     28  27  26     1.398110538534   118.61101485   359.41307190
 C     29  28  27     1.396614041612   121.76017750     0.41309245
 C     21  19  16     1.506676281851   120.81672294   357.79687905
 C     25  24  23     1.504410178716   121.66746057   178.75238985
 C     23  22  21     1.509350410002   120.68754358   177.69620779
 C     26  20  12     1.506674341026   120.81591171   357.75906669
 C     30  29  28     1.504397947565   121.66529879   178.80090229
 C     28  27  26     1.509349525050   120.68750175   177.69992650
 H      1   2   3     1.085607309802   121.07421005   180.37632180
 H      2   1   3     1.085812680323   121.04669934   179.56406561
 H      6   5   4     1.085812915747   119.09152039   179.63668983
 H      7   5   4     1.091876364883   110.84503731   179.41898472
 H      7   5   4     1.103517550863   107.49243737    57.20161219
 H      8   3   2     1.091876456906   110.84339614     0.92578689
 H      8   3   2     1.103518968239   107.49475458   238.70726895
 H     13  12  11     1.078049260580   121.69900321   180.26833392
 H     14  13  12     1.078599167210   131.25256622   179.91658799
 H     17  16  15     1.078049435688   121.69927692   180.24987712
 H     18  17  16     1.078599057700   131.25254614   179.92734160
 H     22  21  19     1.088094308484   118.79953368   179.12650770
 H     24  23  22     1.088448416204   119.47342838   180.08019997
 H     27  26  20     1.088095905544   118.79966281   179.11851867
 H     29  28  27     1.088447181366   119.47308519   180.09739052
 H     31  21  19     1.094695798374   110.57726003   304.95583473
 H     31  21  19     1.092834517968   110.42444355   184.85383794
 H     31  21  19     1.096664539993   111.49660204    64.29615154
 H     32  25  24     1.093512581361   110.62976884     4.14282667
 H     32  25  24     1.097790700196   109.14159056   243.97293125
 H     32  25  24     1.096390575074   111.48227936   125.06334643
 H     33  23  22     1.097548404983   110.60187076   269.84060150
 H     33  23  22     1.094680094353   111.30300419   150.38411414
 H     33  23  22     1.094477726782   111.28401032    29.27910606
 H     34  26  20     1.092836313301   110.42464617   184.85890109
 H     34  26  20     1.096659816049   111.49781982    64.30034736
 H     34  26  20     1.094710338857   110.57604645   304.96016475
 H     35  30  29     1.096398671744   111.48190032   125.04555605
 H     35  30  29     1.093517423637   110.62928513     4.12585992
 H     35  30  29     1.097793179709   109.14009311   243.95584072
 H     36  28  27     1.094679850913   111.30293162   150.38080842
 H     36  28  27     1.094478841448   111.28404685    29.27592927
 H     36  28  27     1.097547546911   110.60181673   269.83734038
 Ru    15  10   8     2.045734105682   121.14045186   354.11381318
 H     70  15  10     1.700776920039    91.52206128   235.16374037
 H     70  15  10     1.700760225259    88.43223863    54.62522229
 C     70  15  10     1.832581148296    94.53363959   144.77253135
 O     73  70  15     1.169682044112   179.99847129   181.06001827

---------------------------
INTERNAL COORDINATES (A.U.)
---------------------------
 C      0   0   0     0.000000000000     0.00000000     0.00000000
 C      1   0   0     2.629532279570     0.00000000     0.00000000
 C      2   1   0     2.629360902291   119.86059918     0.00000000
 N      3   2   1     2.570966344897   122.51928886   359.20712490
 C      4   3   2     2.570965513598   117.38159805     0.39439655
 C      5   4   3     2.629356735867   122.51989940     0.40153513
 C      5   4   3     2.835704799872   116.38440844   181.92983417
 C      3   2   1     2.835702979674   121.07671314   177.62141913
 N      7   5   4     2.751886358628   111.53685284   300.86875500
 N      8   3   2     2.751886506371   111.53558307   122.37320160
 C      9   7   5     2.593113414250   119.98099832    63.80762789
 N     11   9   7     2.600717896050   102.68156699   177.05503068
 C     12  11   9     2.634246994014   111.72636179     0.10918956
 C     13  12  11     2.564179465792   106.90197836     0.27798790
 C     10   8   3     2.593120279417   119.98152510    63.82498083
 N     15  10   8     2.600677205407   102.68144559   177.06371612
 C     16  15  10     2.634240351682   111.72776530     0.13156176
 C     17  16  15     2.564182086337   106.90124610     0.23891488
 C     16  15  10     2.716669314615   124.74794268   180.43747729
 C     12  11   9     2.716698629754   124.75248016   180.44725054
 C     19  16  15     2.644271230426   118.60842643    94.64671970
 C     21  19  16     2.638913284919   117.77963959   179.27301501
 C     22  21  19     2.640194819151   121.68841860     0.27215053
 C     23  22  21     2.642052717717   118.61112551   359.41521410
 C     24  23  22     2.639211022066   121.75928544     0.41218772
 C     20  12  11     2.644277185571   118.60504059    94.47476409
 C     26  20  12     2.638906391415   117.78081594   179.26335174
 C     27  26  20     2.640188547531   121.68818939     0.26922406
 C     28  27  26     2.642046022779   118.61101485   359.41307190
 C     29  28  27     2.639218053435   121.76017750     0.41309245
 C     21  19  16     2.847205545173   120.81672294   357.79687905
 C     25  24  23     2.842923230856   121.66746057   178.75238985
 C     23  22  21     2.852258915025   120.68754358   177.69620779
 C     26  20  12     2.847201877545   120.81591171   357.75906669
 C     30  29  28     2.842900117330   121.66529879   178.80090229
 C     28  27  26     2.852257242709   120.68750175   177.69992650
 H      1   2   3     2.051500504508   121.07421005   180.37632180
 H      2   1   3     2.051888598550   121.04669934   179.56406561
 H      6   5   4     2.051889043436   119.09152039   179.63668983
 H      7   5   4     2.063347301731   110.84503731   179.41898472
 H      7   5   4     2.085345955106   107.49243737    57.20161219
 H      8   3   2     2.063347475628   110.84339614     0.92578689
 H      8   3   2     2.085348633559   107.49475458   238.70726895
 H     13  12  11     2.037217861373   121.69900321   180.26833392
 H     14  13  12     2.038257034303   131.25256622   179.91658799
 H     17  16  15     2.037218192279   121.69927692   180.24987712
 H     18  17  16     2.038256827359   131.25254614   179.92734160
 H     22  21  19     2.056200250913   118.79953368   179.12650770
 H     24  23  22     2.056869417526   119.47342838   180.08019997
 H     27  26  20     2.056203268919   118.79966281   179.11851867
 H     29  28  27     2.056867084020   119.47308519   180.09739052
 H     31  21  19     2.068675258880   110.57726003   304.95583473
 H     31  21  19     2.065157948655   110.42444355   184.85383794
 H     31  21  19     2.072395641370   111.49660204    64.29615154
 H     32  25  24     2.066439302770   110.62976884     4.14282667
 H     32  25  24     2.074523775736   109.14159056   243.97293125
 H     32  25  24     2.071877922702   111.48227936   125.06334643
 H     33  23  22     2.074065904140   110.60187076   269.84060150
 H     33  23  22     2.068645582583   111.30300419   150.38411414
 H     33  23  22     2.068263163295   111.28401032    29.27910606
 H     34  26  20     2.065161341344   110.42464617   184.85890109
 H     34  26  20     2.072386714410   111.49781982    64.30034736
 H     34  26  20     2.068702736412   110.57604645   304.96016475
 H     35  30  29     2.071893223191   111.48190032   125.04555605
 H     35  30  29     2.066448453345   110.62928513     4.12585992
 H     35  30  29     2.074528461337   109.14009311   243.95584072
 H     36  28  27     2.068645122547   111.30293162   150.38080842
 H     36  28  27     2.068265269708   111.28404685    29.27592927
 H     36  28  27     2.074064282619   110.60181673   269.83734038
 Ru    15  10   8     3.865877202561   121.14045186   354.11381318
 H     70  15  10     3.214002593769    91.52206128   235.16374037
 H     70  15  10     3.213971045205    88.43223863    54.62522229
 C     70  15  10     3.463076488466    94.53363959   144.77253135
 O     73  70  15     2.210378727137   179.99847129   181.06001827

---------------------
BASIS SET INFORMATION
---------------------
There are 5 groups of distinct atoms

 Group   1 Type C   : 11s6p2d1f contracted to 5s3p2d1f pattern {62111/411/11/1}
 Group   2 Type N   : 11s6p2d1f contracted to 5s3p2d1f pattern {62111/411/11/1}
 Group   3 Type H   : 5s1p contracted to 3s1p pattern {311/1}
 Group   4 Type Ru  : 7s7p5d1f contracted to 6s4p3d1f pattern {211111/4111/311/1}
 Group   5 Type O   : 11s6p2d1f contracted to 5s3p2d1f pattern {62111/411/11/1}

Atom   0C    basis set group =>   1
Atom   1C    basis set group =>   1
Atom   2C    basis set group =>   1
Atom   3N    basis set group =>   2
Atom   4C    basis set group =>   1
Atom   5C    basis set group =>   1
Atom   6C    basis set group =>   1
Atom   7C    basis set group =>   1
Atom   8N    basis set group =>   2
Atom   9N    basis set group =>   2
Atom  10C    basis set group =>   1
Atom  11N    basis set group =>   2
Atom  12C    basis set group =>   1
Atom  13C    basis set group =>   1
Atom  14C    basis set group =>   1
Atom  15N    basis set group =>   2
Atom  16C    basis set group =>   1
Atom  17C    basis set group =>   1
Atom  18C    basis set group =>   1
Atom  19C    basis set group =>   1
Atom  20C    basis set group =>   1
Atom  21C    basis set group =>   1
Atom  22C    basis set group =>   1
Atom  23C    basis set group =>   1
Atom  24C    basis set group =>   1
Atom  25C    basis set group =>   1
Atom  26C    basis set group =>   1
Atom  27C    basis set group =>   1
Atom  28C    basis set group =>   1
Atom  29C    basis set group =>   1
Atom  30C    basis set group =>   1
Atom  31C    basis set group =>   1
Atom  32C    basis set group =>   1
Atom  33C    basis set group =>   1
Atom  34C    basis set group =>   1
Atom  35C    basis set group =>   1
Atom  36H    basis set group =>   3
Atom  37H    basis set group =>   3
Atom  38H    basis set group =>   3
Atom  39H    basis set group =>   3
Atom  40H    basis set group =>   3
Atom  41H    basis set group =>   3
Atom  42H    basis set group =>   3
Atom  43H    basis set group =>   3
Atom  44H    basis set group =>   3
Atom  45H    basis set group =>   3
Atom  46H    basis set group =>   3
Atom  47H    basis set group =>   3
Atom  48H    basis set group =>   3
Atom  49H    basis set group =>   3
Atom  50H    basis set group =>   3
Atom  51H    basis set group =>   3
Atom  52H    basis set group =>   3
Atom  53H    basis set group =>   3
Atom  54H    basis set group =>   3
Atom  55H    basis set group =>   3
Atom  56H    basis set group =>   3
Atom  57H    basis set group =>   3
Atom  58H    basis set group =>   3
Atom  59H    basis set group =>   3
Atom  60H    basis set group =>   3
Atom  61H    basis set group =>   3
Atom  62H    basis set group =>   3
Atom  63H    basis set group =>   3
Atom  64H    basis set group =>   3
Atom  65H    basis set group =>   3
Atom  66H    basis set group =>   3
Atom  67H    basis set group =>   3
Atom  68H    basis set group =>   3
Atom  69Ru   basis set group =>   4
Atom  70H    basis set group =>   3
Atom  71H    basis set group =>   3
Atom  72C    basis set group =>   1
Atom  73O    basis set group =>   5
-------------------------------
AUXILIARY BASIS SET INFORMATION
-------------------------------
There are 5 groups of distinct atoms

 Group   1 Type C   : 12s5p4d2f1g contracted to 6s4p3d1f1g pattern {711111/2111/211/2/1}
 Group   2 Type N   : 12s5p4d2f1g contracted to 6s4p3d1f1g pattern {711111/2111/211/2/1}
 Group   3 Type H   : 5s2p1d contracted to 3s1p1d pattern {311/2/1}
 Group   4 Type Ru  : 11s5p5d3f3g contracted to 8s5p5d2f3g pattern {41111111/11111/11111/21/111}
 Group   5 Type O   : 12s5p4d2f1g contracted to 6s4p3d1f1g pattern {711111/2111/211/2/1}

Atom   0C    basis set group =>   1
Atom   1C    basis set group =>   1
Atom   2C    basis set group =>   1
Atom   3N    basis set group =>   2
Atom   4C    basis set group =>   1
Atom   5C    basis set group =>   1
Atom   6C    basis set group =>   1
Atom   7C    basis set group =>   1
Atom   8N    basis set group =>   2
Atom   9N    basis set group =>   2
Atom  10C    basis set group =>   1
Atom  11N    basis set group =>   2
Atom  12C    basis set group =>   1
Atom  13C    basis set group =>   1
Atom  14C    basis set group =>   1
Atom  15N    basis set group =>   2
Atom  16C    basis set group =>   1
Atom  17C    basis set group =>   1
Atom  18C    basis set group =>   1
Atom  19C    basis set group =>   1
Atom  20C    basis set group =>   1
Atom  21C    basis set group =>   1
Atom  22C    basis set group =>   1
Atom  23C    basis set group =>   1
Atom  24C    basis set group =>   1
Atom  25C    basis set group =>   1
Atom  26C    basis set group =>   1
Atom  27C    basis set group =>   1
Atom  28C    basis set group =>   1
Atom  29C    basis set group =>   1
Atom  30C    basis set group =>   1
Atom  31C    basis set group =>   1
Atom  32C    basis set group =>   1
Atom  33C    basis set group =>   1
Atom  34C    basis set group =>   1
Atom  35C    basis set group =>   1
Atom  36H    basis set group =>   3
Atom  37H    basis set group =>   3
Atom  38H    basis set group =>   3
Atom  39H    basis set group =>   3
Atom  40H    basis set group =>   3
Atom  41H    basis set group =>   3
Atom  42H    basis set group =>   3
Atom  43H    basis set group =>   3
Atom  44H    basis set group =>   3
Atom  45H    basis set group =>   3
Atom  46H    basis set group =>   3
Atom  47H    basis set group =>   3
Atom  48H    basis set group =>   3
Atom  49H    basis set group =>   3
Atom  50H    basis set group =>   3
Atom  51H    basis set group =>   3
Atom  52H    basis set group =>   3
Atom  53H    basis set group =>   3
Atom  54H    basis set group =>   3
Atom  55H    basis set group =>   3
Atom  56H    basis set group =>   3
Atom  57H    basis set group =>   3
Atom  58H    basis set group =>   3
Atom  59H    basis set group =>   3
Atom  60H    basis set group =>   3
Atom  61H    basis set group =>   3
Atom  62H    basis set group =>   3
Atom  63H    basis set group =>   3
Atom  64H    basis set group =>   3
Atom  65H    basis set group =>   3
Atom  66H    basis set group =>   3
Atom  67H    basis set group =>   3
Atom  68H    basis set group =>   3
Atom  69Ru   basis set group =>   4
Atom  70H    basis set group =>   3
Atom  71H    basis set group =>   3
Atom  72C    basis set group =>   1
Atom  73O    basis set group =>   5
-------------------------
ECP PARAMETER INFORMATION
-------------------------

 Group 1, Type Ru ECP Def2-ECP (replacing 28 core electrons, lmax=3)

Atom  69Ru   ECP group =>   1



           ************************************************************
           *        Program running with 32 parallel MPI-processes    *
           *              working on a common directory               *
           ************************************************************
------------------------------------------------------------------------------
                           ORCA GTO INTEGRAL CALCULATION
                           -- RI-GTO INTEGRALS CHOSEN --
------------------------------------------------------------------------------

                         BASIS SET STATISTICS AND STARTUP INFO

Gaussian basis set:
 # of primitive gaussian shells          ...  990
 # of primitive gaussian functions       ... 2088
 # of contracted shells                  ...  572
 # of contracted basis functions         ... 1428
 Highest angular momentum                ...    3
 Maximum contraction depth               ...    6
Auxiliary gaussian basis set:
 # of primitive gaussian shells          ... 1219
 # of primitive gaussian functions       ... 3319
 # of contracted shells                  ...  768
 # of contracted aux-basis functions     ... 2336
 Highest angular momentum                ...    4
 Maximum contraction depth               ...    7
Ratio of auxiliary to basis functions    ...  1.64
Integral package used                  ... LIBINT
 One Electron integrals                  
   ECP integrals                         ... done
 Ordering auxiliary basis shells         ... done
 Integral threshhold             Thresh  ...  2.500e-11
 Primitive cut-off               TCut    ...  2.500e-12
 Pre-screening matrix                    ... done
 Shell pair data                         ... 
 Ordering of the shell pairs             ... done (   0.021 sec) 99822 of 163878 pairs
 Determination of significant pairs      ... done (   0.000 sec)
 Creation of shell pair data             ... done (   0.014 sec)
 Storage of shell pair data              ... done (   0.056 sec)
 Shell pair data done in (   0.092 sec)
 Computing two index integrals           ... done
 Cholesky decomposition of the V-matrix  ... done


Timings:
 Total evaluation time                   ...   8.980 sec (  0.150 min)
 One electron matrix time                ...   6.885 sec (  0.115 min) = 76.7%
 Schwartz matrix evaluation time         ...   1.403 sec (  0.023 min) = 15.6%
 Two index repulsion integral time       ...   0.236 sec (  0.004 min) =  2.6%
 Cholesky decomposition of V             ...   0.322 sec (  0.005 min) =  3.6%
 Three index repulsion integral time     ...   0.000 sec (  0.000 min) =  0.0%



           ************************************************************
           *        Program running with 32 parallel MPI-processes    *
           *              working on a common directory               *
           ************************************************************
-------------------------------------------------------------------------------
                                 ORCA SCF
-------------------------------------------------------------------------------

------------
SCF SETTINGS
------------
Hamiltonian:
 Density Functional     Method          .... DFT(GTOs)
 Exchange Functional    Exchange        .... TPSS
 Correlation Functional Correlation     .... TPSS
 LDA part of GGA corr.  LDAOpt          .... PW91-LDA
 Gradients option       PostSCFGGA      .... off
   NL short-range parameter             ....  5.000000
 RI-approximation to the Coulomb term is turned on
   Number of auxiliary basis functions  .... 2336


General Settings:
 Integral files         IntName         .... opt
 Hartree-Fock type      HFTyp           .... RHF
 Total Charge           Charge          ....    0
 Multiplicity           Mult            ....    1
 Number of Electrons    NEL             ....  286
 Basis Dimension        Dim             .... 1428
 Nuclear Repulsion      ENuc            ....   4843.4393866545 Eh

Convergence Acceleration:
 DIIS                   CNVDIIS         .... on
   Start iteration      DIISMaxIt       ....     0
   Startup error        DIISStart       ....  0.200000
   # of expansion vecs  DIISMaxEq       ....     5
   Bias factor          DIISBfac        ....   1.050
   Max. coefficient     DIISMaxC        ....  10.000
 Newton-Raphson         CNVNR           .... off
 SOSCF                  CNVSOSCF        .... off
 Level Shifting         CNVShift        .... on
   Level shift para.    LevelShift      ....    0.2500
   Turn off err/grad.   ShiftErr        ....    0.0000
 Zerner damping         CNVZerner       .... off
 Static damping         CNVDamp         .... on
   Fraction old density DampFac         ....    0.8500
   Max. Damping (<1)    DampMax         ....    0.9800
   Min. Damping (>=0)   DampMin         ....    0.0000
   Turn off err/grad.   DampErr         ....    0.0300
 Fernandez-Rico         CNVRico         .... off

SCF Procedure:
 Maximum # iterations   MaxIter         ....   300
 SCF integral mode      SCFMode         .... Direct
   Integral package                     .... LIBINT
 Reset frequeny         DirectResetFreq ....    20
 Integral Threshold     Thresh          ....  2.500e-11 Eh
 Primitive CutOff       TCut            ....  2.500e-12 Eh

Convergence Tolerance:
 Convergence Check Mode ConvCheckMode   .... Total+1el-Energy
 Convergence forced     ConvForced      .... 0
 Energy Change          TolE            ....  1.000e-08 Eh
 1-El. energy change                    ....  1.000e-05 Eh
 DIIS Error             TolErr          ....  5.000e-07


Diagonalization of the overlap matrix:
Smallest eigenvalue                        ... 3.366e-06
Time for diagonalization                   ...    0.270 sec
Threshold for overlap eigenvalues          ... 1.000e-08
Number of eigenvalues below threshold      ... 0
Time for construction of square roots      ...    0.329 sec
Total time needed                          ...    0.606 sec

-------------------
DFT GRID GENERATION
-------------------

General Integration Accuracy     IntAcc      ...  5.340
Radial Grid Type                 RadialGrid  ... Gauss-Chebyshev
Angular Grid (max. acc.)         AngularGrid ... Lebedev-590
Angular grid pruning method      GridPruning ... 3 (G Style)
Weight generation scheme         WeightScheme... Becke
Basis function cutoff            BFCut       ...    1.0000e-11
Integration weight cutoff        WCut        ...    1.0000e-14
Grids for H and He will be reduced by one unit

# of grid points (after initial pruning)     ... 1037964 (   0.0 sec)
# of grid points (after weights+screening)   ... 863906 (   1.3 sec)
nearest neighbour list constructed           ...    0.0 sec
Grid point re-assignment to atoms done       ...    0.2 sec
Grid point division into batches done        ...    8.0 sec
Reduced shell lists constructed in    8.9 sec

Total number of grid points                  ...   863906
Total number of batches                      ...    13531
Average number of points per batch           ...       63
Average number of grid points per atom       ...    11674
Average number of shells per batch           ...   176.70 (30.89%)
Average number of basis functions per batch  ...   414.75 (29.04%)
Average number of large shells per batch     ...   105.00 (59.42%)
Average number of large basis fcns per batch ...   259.00 (62.45%)
Maximum spatial batch extension              ...   7.38, 13.06,  7.47 au
Average spatial batch extension              ...   0.03,  0.03,  0.03 au

Time for grid setup =   11.631 sec

------------------------------
INITIAL GUESS: MODEL POTENTIAL
------------------------------
Loading Hartree-Fock densities                     ... done
  calling /home/mikhailp/opt/orca_4_0_1_linux_x86-64/orca opt_atom44.inp > opt_atom44.out in order to generate an atomic fitting density for atom 69 (Ru with ECP) on-the-fly... 
    atom 69 (Ru), assumed electronic state with S=5: 1s2 2s2 2p6 3s2 3p6 4s2 3d10 4p6 5s2 4d6           ... done
Calculating cut-offs                               ... done
Setting up the integral package                    ... done
Initializing the effective Hamiltonian             ... done
Starting the Coulomb interaction                   ... done (   0.4 sec)
Reading the grid                                   ... done
Mapping shells                                     ... done
Starting the XC term evaluation                    ... done (   2.2 sec)
  promolecular density results
     # of electrons  =    313.983187111
     EX              =   -343.718903122
     EC              =    -11.393255464
     EX+EC           =   -355.112158586
Transforming the Hamiltonian                       ... done (   0.3 sec)
Diagonalizing the Hamiltonian                      ... done (   0.3 sec)
Back transforming the eigenvectors                 ... done (   0.1 sec)
Now organizing SCF variables                       ... done
                      ------------------
                      INITIAL GUESS DONE (  21.8 sec)
                      ------------------
--------------
SCF ITERATIONS
--------------
ITER       Energy         Delta-E        Max-DP      RMS-DP      [F,P]     Damp
               ***  Starting incremental Fock matrix formation  ***
  0  -1684.5592529162   0.000000000000 0.02234371  0.00029307  0.4271124 0.8500
  1  -1684.7594176897  -0.200164773508 0.02565715  0.00032739  0.3660054 0.8500
                               ***Turning on DIIS***
  2  -1684.8903878285  -0.130970138796 0.02544448  0.00027838  0.3126731 0.8500
  3  -1684.9719729699  -0.081585141403 0.01687830  0.00016912  0.2659923 0.8500
  4  -1685.0312102634  -0.059237293488 0.01220236  0.00010815  0.2251769 0.8500
  5  -1685.0762405460  -0.045030282588 0.00999192  0.00007977  0.1913934 0.8500
  6  -1685.1123981229  -0.036157576940 0.00920335  0.00006508  0.1630358 0.8500
  7  -1685.1423455846  -0.029947461709 0.00806993  0.00005509  0.1386578 0.8500
  8  -1685.1676133442  -0.025267759559 0.00704575  0.00004744  0.1177856 0.8500
  9  -1685.1889063868  -0.021293042611 0.00615415  0.00004024  0.0998845 0.8500
 10  -1685.2067757710  -0.017869384203 0.00548116  0.00003417  0.0849175 0.8500
 11  -1685.2217796474  -0.015003876430 0.00476111  0.00002924  0.0723207 0.8500
 12  -1685.2344119036  -0.012632256212 0.00421408  0.00002526  0.0614800 0.8500
 13  -1685.2450719185  -0.010660014872 0.00385982  0.00002200  0.0521839 0.8500
 14  -1685.2540787317  -0.009006813187 0.00367459  0.00001954  0.0443193 0.8500
 15  -1685.2616952387  -0.007616507026 0.00342946  0.00001752  0.0377092 0.8500
 16  -1685.2681407697  -0.006445530941 0.00308466  0.00001567  0.0320846 0.8500
 17  -1685.2735998498  -0.005459080138 0.01822587  0.00009164  0.0272498 0.0000
 18  -1685.3042142356  -0.030614385826 0.00433921  0.00002353  0.0010214 0.0000
 19  -1685.3042044479   0.000009787766 0.00256789  0.00001501  0.0024627 0.0000
               *** Restarting incremental Fock matrix formation ***
                                   *** Resetting DIIS ***
 20  -1685.3042147022  -0.000010254333 0.00367005  0.00002395  0.0009313 0.0000
 21  -1685.3042023986   0.000012303642 0.00083468  0.00000456  0.0024943 0.0000
 22  -1685.3042140812  -0.000011682592 0.00050275  0.00000316  0.0010564 0.0000
 23  -1685.3042164697  -0.000002388558 0.00025034  0.00000191  0.0005049 0.0000
 24  -1685.3042171413  -0.000000671583 0.00030560  0.00000213  0.0002096 0.0000
 25  -1685.3042172337  -0.000000092409 0.00024458  0.00000222  0.0000597 0.0000
 26  -1685.3042172558  -0.000000022056 0.00032875  0.00000229  0.0000338 0.0000
 27  -1685.3042172648  -0.000000009071 0.00045448  0.00000243  0.0000043 0.0000
 28  -1685.3042172260   0.000000038833 0.00022169  0.00000134  0.0000077 0.0000
 29  -1685.3042172071   0.000000018856 0.00013188  0.00000088  0.0000051 0.0000
 30  -1685.3042172858  -0.000000078647 0.00004962  0.00000049  0.0000014 0.0000
 31  -1685.3042172725   0.000000013257 0.00003571  0.00000028  0.0000032 0.0000
 32  -1685.3042172714   0.000000001173 0.00002245  0.00000021  0.0000014 0.0000
                            ***DIIS convergence achieved***

               *****************************************************
               *                     SUCCESS                       *
               *           SCF CONVERGED AFTER  33 CYCLES          *
               *****************************************************


----------------
TOTAL SCF ENERGY
----------------

Total Energy       :        -1685.30421735 Eh          -45859.45920 eV

Components:
Nuclear Repulsion  :         4843.43938665 Eh          131796.68612 eV
Electronic Energy  :        -6528.74360401 Eh         -177656.14533 eV
One Electron Energy:       -11966.25393191 Eh         -325618.32360 eV
Two Electron Energy:         5437.51032790 Eh          147962.17827 eV

Virial components:
Potential Energy   :        -3302.19685669 Eh          -89857.34473 eV
Kinetic Energy     :         1616.89263934 Eh           43997.88553 eV
Virial Ratio       :            2.04231053


DFT components:
N(Alpha)           :      143.000052463190 electrons
N(Beta)            :      143.000052463190 electrons
N(Total)           :      286.000104926379 electrons
E(X)               :     -230.967271679982 Eh       
E(C)               :       -9.761819409561 Eh       
E(XC)              :     -240.729091089543 Eh       

---------------
SCF CONVERGENCE
---------------

  Last Energy change         ...   -8.3465e-08  Tolerance :   1.0000e-08
  Last MAX-Density change    ...    2.4473e-05  Tolerance :   1.0000e-07
  Last RMS-Density change    ...    2.1352e-07  Tolerance :   5.0000e-09
  Last DIIS Error            ...    3.6782e-07  Tolerance :   5.0000e-07

             **** THE GBW FILE WAS UPDATED (opt.gbw) ****
             **** DENSITY FILE WAS UPDATED (opt.scfp.tmp) ****
             **** ENERGY FILE WAS UPDATED (opt.en.tmp) ****
----------------
ORBITAL ENERGIES
----------------

  NO   OCC          E(Eh)            E(eV) 
   0   2.0000     -18.874293      -513.5956 
   1   2.0000     -14.145769      -384.9260 
   2   2.0000     -14.145765      -384.9258 
   3   2.0000     -14.141723      -384.8158 
   4   2.0000     -14.141717      -384.8157 
   5   2.0000     -14.139523      -384.7560 
   6   2.0000     -10.040528      -273.2166 
   7   2.0000     -10.040517      -273.2164 
   8   2.0000     -10.033477      -273.0248 
   9   2.0000     -10.033476      -273.0248 
  10   2.0000     -10.018727      -272.6234 
  11   2.0000     -10.017922      -272.6015 
  12   2.0000     -10.017916      -272.6014 
  13   2.0000     -10.015852      -272.5452 
  14   2.0000     -10.015847      -272.5450 
  15   2.0000     -10.014944      -272.5205 
  16   2.0000     -10.013064      -272.4693 
  17   2.0000     -10.013061      -272.4692 
  18   2.0000     -10.010014      -272.3863 
  19   2.0000     -10.009996      -272.3858 
  20   2.0000     -10.005597      -272.2661 
  21   2.0000     -10.005590      -272.2660 
  22   2.0000      -9.983334      -271.6603 
  23   2.0000      -9.983313      -271.6598 
  24   2.0000      -9.983090      -271.6537 
  25   2.0000      -9.983054      -271.6527 
  26   2.0000      -9.981382      -271.6072 
  27   2.0000      -9.981379      -271.6071 
  28   2.0000      -9.974180      -271.4112 
[...]
 156:      1404.72    5.379473  (  0.754608  -0.010469  -2.193155)
 157:      1408.53   20.876950  (  0.019280   4.568916  -0.039802)
 158:      1415.93  133.507779  (  6.929352   0.029912   9.246133)
 159:      1423.83   40.817340  (  0.008594  -6.388675   0.045776)
 160:      1426.88    0.369954  ( -0.043670   0.566112  -0.218091)
 161:      1426.92    0.304752  (  0.124638   0.205134   0.497129)
 162:      1434.38   42.318915  (  0.019717  -6.505261  -0.010164)
 163:      1459.54   21.295902  ( -2.947880  -0.101473  -3.549029)
 164:      1460.28   12.245919  (  0.113817  -3.496218   0.097078)
 165:      1471.44   13.488457  (  3.540433   0.014116   0.976519)
 166:      1475.73    6.473045  ( -2.335415   0.056524   1.007812)
 167:      1475.87    0.275720  ( -0.472181  -0.101976   0.205830)
 168:      1478.49   16.922047  (  4.090272   0.251893  -0.358152)
 169:      1478.68    2.042627  ( -0.903582   1.104214   0.082927)
 170:      1484.43    8.251554  ( -2.480350   0.097435   1.445657)
 171:      1484.47    0.583272  ( -0.472092  -0.529016   0.283800)
 172:      1487.65   27.055250  ( -2.761671   0.060941  -4.407347)
 173:      1488.62    0.250297  (  0.150512   0.451304   0.154816)
 174:      1493.83   20.293288  ( -3.169649   0.026236  -3.200926)
 175:      1496.86   11.664662  (  0.126132  -3.411826   0.090537)
 176:      1502.90  114.298727  (  5.497906   0.078033   9.168733)
 177:      1509.52   34.523732  (  0.127060   5.873556   0.094482)
 178:      1513.15  216.018000  ( -8.481130   0.032155 -12.003641)
 179:      1560.09    5.701236  ( -0.661529   0.003759   2.294254)
 180:      1562.77    0.192536  (  0.003505  -0.438314  -0.020135)
 181:      1563.14    2.047554  ( -0.329012  -0.006325   1.392575)
 182:      1599.03    2.309075  (  0.172193  -1.463123   0.372419)
 183:      1599.14    7.212351  ( -1.085851  -0.239134  -2.444605)
 184:      1611.70    1.997891  (  0.000243  -1.413404  -0.013466)
 185:      1615.58   20.859498  ( -0.031924   4.565764  -0.110805)
 186:      1615.77    7.794876  ( -0.754095  -0.198962  -2.680789)
 187:      1811.48    0.310788  ( -0.027115  -0.556517   0.018488)
 188:      1922.28  736.844322  (  0.027208  27.144861  -0.011076)
 189:      2920.20   25.444285  (  0.913080  -0.035160  -4.960780)
 190:      2922.56   48.455145  (  0.002230  -6.960928   0.024997)
 191:      2971.76   44.970957  ( -5.537803  -1.917613  -3.259824)
 192:      2972.21   25.398287  (  3.374605  -3.163559   2.000554)
 193:      2985.27   27.299815  (  1.229749   0.292607   5.069705)
 194:      2985.31   51.495647  (  0.042488  -7.172895   0.208386)
 195:      2991.98   13.798420  ( -0.571627   1.027963   3.523486)
 196:      2992.18   38.738903  ( -0.934348  -0.620878   6.122124)
 197:      3025.74    7.342366  ( -1.076948  -2.256127   1.045198)
 198:      3025.90    9.423079  ( -0.881496   2.818049   0.839431)
 199:      3035.80   36.762033  (  5.936289  -1.212383   0.229426)
 200:      3035.82   14.429841  (  2.734998   2.634601   0.092220)
 201:      3044.39   10.332096  (  3.003194   1.042825  -0.474805)
 202:      3044.60    6.380300  (  2.018452  -1.477732  -0.349940)
 203:      3061.45   20.379178  (  1.252920  -0.611996   4.293580)
 204:      3061.47   12.377522  (  0.212022   3.426524   0.769090)
 205:      3063.47   13.741015  ( -1.081442   0.253748  -3.536539)
 206:      3063.53   27.897083  ( -1.607586  -0.190031  -5.027588)
 207:      3070.15   26.641540  (  1.179021   0.051572  -5.024817)
 208:      3070.37   10.223305  ( -0.019351   3.196216   0.084475)
 209:      3075.34    3.324304  (  0.946721  -0.713507  -1.385255)
 210:      3075.42   32.958245  (  0.096160   5.737846  -0.161634)
 211:      3109.26   17.953872  (  1.770172   0.749199   3.776118)
 212:      3109.27   31.092417  (  2.378922  -0.567873   5.011054)
 213:      3113.64    2.998280  (  1.226401  -0.914831  -0.810743)
 214:      3113.74   35.002581  (  0.179805   5.912160  -0.128891)
 215:      3134.04    0.259303  ( -0.001847  -0.509211  -0.001815)
 216:      3143.40   13.876891  ( -1.437843   0.001532   3.436495)
 217:      3157.31   18.558111  (  0.002572   4.307912   0.000031)
 218:      3224.84    2.879561  ( -1.677773   0.024438   0.253064)
 219:      3224.87    0.570365  ( -0.058644  -0.752895   0.008687)
 220:      3247.40    1.550874  ( -0.596770   0.034032   1.092512)
 221:      3247.58    0.673629  ( -0.024711  -0.819048   0.046680)

The first frequency considered to be a vibration is 6
The total number of vibrations considered is 216


--------------------------
THERMOCHEMISTRY AT 298.15K
--------------------------

Temperature         ... 298.15 K
Pressure            ... 1.00 atm
Total Mass          ... 606.74 AMU

Throughout the following assumptions are being made:
  (1) The electronic state is orbitally nondegenerate
  (2) There are no thermally accessible electronically excited states
  (3) Hindered rotations indicated by low frequency modes are not
      treated as such but are treated as vibrations and this may
      cause some error
  (4) All equations used are the standard statistical mechanics
      equations for an ideal gas
  (5) All vibrations are strictly harmonic

freq.      14.61  E(vib)   ...       0.57 
freq.      24.49  E(vib)   ...       0.56 
freq.      29.95  E(vib)   ...       0.55 
freq.      31.57  E(vib)   ...       0.55 
freq.      35.58  E(vib)   ...       0.54 
freq.      35.64  E(vib)   ...       0.54 
freq.      41.73  E(vib)   ...       0.53 
freq.      55.52  E(vib)   ...       0.52 
freq.      59.37  E(vib)   ...       0.51 
freq.      61.44  E(vib)   ...       0.51 
freq.      62.12  E(vib)   ...       0.51 
freq.      87.77  E(vib)   ...       0.48 
freq.     101.38  E(vib)   ...       0.46 
freq.     106.14  E(vib)   ...       0.45 
freq.     113.20  E(vib)   ...       0.45 
freq.     122.09  E(vib)   ...       0.44 
freq.     125.47  E(vib)   ...       0.43 
freq.     133.13  E(vib)   ...       0.42 
freq.     144.84  E(vib)   ...       0.41 
freq.     145.88  E(vib)   ...       0.41 
freq.     165.27  E(vib)   ...       0.39 
freq.     171.99  E(vib)   ...       0.38 
freq.     184.32  E(vib)   ...       0.37 
freq.     184.69  E(vib)   ...       0.37 
freq.     209.47  E(vib)   ...       0.34 
freq.     213.45  E(vib)   ...       0.34 
freq.     216.28  E(vib)   ...       0.34 
freq.     222.36  E(vib)   ...       0.33 
freq.     229.04  E(vib)   ...       0.32 
freq.     229.67  E(vib)   ...       0.32 
freq.     246.57  E(vib)   ...       0.31 
freq.     257.92  E(vib)   ...       0.30 
freq.     264.65  E(vib)   ...       0.29 
freq.     265.43  E(vib)   ...       0.29 
freq.     276.71  E(vib)   ...       0.28 
freq.     284.41  E(vib)   ...       0.28 
freq.     304.73  E(vib)   ...       0.26 
freq.     309.14  E(vib)   ...       0.26 
freq.     342.69  E(vib)   ...       0.23 
freq.     344.20  E(vib)   ...       0.23 
freq.     352.94  E(vib)   ...       0.22 
freq.     362.59  E(vib)   ...       0.22 
freq.     380.16  E(vib)   ...       0.21 
freq.     383.13  E(vib)   ...       0.20 
freq.     385.59  E(vib)   ...       0.20 
freq.     443.70  E(vib)   ...       0.17 
freq.     454.22  E(vib)   ...       0.16 
freq.     456.05  E(vib)   ...       0.16 
freq.     488.84  E(vib)   ...       0.15 
freq.     489.12  E(vib)   ...       0.15 
freq.     509.84  E(vib)   ...       0.14 
freq.     509.96  E(vib)   ...       0.14 
freq.     522.13  E(vib)   ...       0.13 
freq.     524.65  E(vib)   ...       0.13 
freq.     539.62  E(vib)   ...       0.12 
freq.     549.35  E(vib)   ...       0.12 
freq.     551.63  E(vib)   ...       0.12 
freq.     570.17  E(vib)   ...       0.11 
freq.     570.40  E(vib)   ...       0.11 
freq.     574.83  E(vib)   ...       0.11 
freq.     576.47  E(vib)   ...       0.11 
freq.     586.10  E(vib)   ...       0.11 
freq.     587.71  E(vib)   ...       0.10 
freq.     594.69  E(vib)   ...       0.10 
freq.     598.14  E(vib)   ...       0.10 
freq.     599.81  E(vib)   ...       0.10 
freq.     621.71  E(vib)   ...       0.09 
freq.     626.39  E(vib)   ...       0.09 
freq.     637.09  E(vib)   ...       0.09 
freq.     641.07  E(vib)   ...       0.09 
freq.     671.84  E(vib)   ...       0.08 
freq.     671.88  E(vib)   ...       0.08 
freq.     702.12  E(vib)   ...       0.07 
freq.     710.28  E(vib)   ...       0.07 
freq.     715.28  E(vib)   ...       0.07 
freq.     715.62  E(vib)   ...       0.07 
freq.     721.13  E(vib)   ...       0.07 
freq.     737.85  E(vib)   ...       0.06 
freq.     740.28  E(vib)   ...       0.06 
freq.     759.50  E(vib)   ...       0.06 
freq.     762.50  E(vib)   ...       0.06 
freq.     766.96  E(vib)   ...       0.06 
freq.     767.85  E(vib)   ...       0.06 
freq.     785.65  E(vib)   ...       0.05 
freq.     816.00  E(vib)   ...       0.05 
freq.     846.31  E(vib)   ...       0.04 
freq.     846.50  E(vib)   ...       0.04 
freq.     865.60  E(vib)   ...       0.04 
freq.     865.80  E(vib)   ...       0.04 
freq.     892.45  E(vib)   ...       0.03 
freq.     921.87  E(vib)   ...       0.03 
freq.     932.41  E(vib)   ...       0.03 
freq.     933.11  E(vib)   ...       0.03 
freq.     935.60  E(vib)   ...       0.03 
freq.     935.62  E(vib)   ...       0.03 
freq.     940.55  E(vib)   ...       0.03 
freq.     955.01  E(vib)   ...       0.03 
freq.     969.02  E(vib)   ...       0.03 
freq.     970.49  E(vib)   ...       0.03 
freq.     991.68  E(vib)   ...       0.02 
freq.    1007.97  E(vib)   ...       0.02 
freq.    1020.60  E(vib)   ...       0.02 
freq.    1020.65  E(vib)   ...       0.02 
freq.    1021.97  E(vib)   ...       0.02 
freq.    1022.04  E(vib)   ...       0.02 
freq.    1028.03  E(vib)   ...       0.02 
freq.    1031.61  E(vib)   ...       0.02 
freq.    1042.55  E(vib)   ...       0.02 
freq.    1042.57  E(vib)   ...       0.02 
freq.    1048.38  E(vib)   ...       0.02 
freq.    1048.60  E(vib)   ...       0.02 
freq.    1049.37  E(vib)   ...       0.02 
freq.    1049.53  E(vib)   ...       0.02 
freq.    1051.62  E(vib)   ...       0.02 
freq.    1051.71  E(vib)   ...       0.02 
freq.    1084.58  E(vib)   ...       0.02 
freq.    1085.95  E(vib)   ...       0.02 
freq.    1092.50  E(vib)   ...       0.02 
freq.    1106.43  E(vib)   ...       0.02 
freq.    1110.56  E(vib)   ...       0.02 
freq.    1158.08  E(vib)   ...       0.01 
freq.    1160.23  E(vib)   ...       0.01 
freq.    1172.45  E(vib)   ...       0.01 
freq.    1177.80  E(vib)   ...       0.01 
freq.    1181.54  E(vib)   ...       0.01 
freq.    1217.83  E(vib)   ...       0.01 
freq.    1234.60  E(vib)   ...       0.01 
freq.    1241.76  E(vib)   ...       0.01 
freq.    1252.92  E(vib)   ...       0.01 
freq.    1255.74  E(vib)   ...       0.01 
freq.    1259.83  E(vib)   ...       0.01 
freq.    1260.01  E(vib)   ...       0.01 
freq.    1275.91  E(vib)   ...       0.01 
freq.    1298.24  E(vib)   ...       0.01 
freq.    1300.02  E(vib)   ...       0.01 
freq.    1301.24  E(vib)   ...       0.01 
freq.    1326.64  E(vib)   ...       0.01 
freq.    1330.47  E(vib)   ...       0.01 
freq.    1331.90  E(vib)   ...       0.01 
freq.    1331.97  E(vib)   ...       0.01 
freq.    1358.35  E(vib)   ...       0.01 
freq.    1360.69  E(vib)   ...       0.01 
freq.    1389.91  E(vib)   ...       0.00 
freq.    1390.88  E(vib)   ...       0.00 
freq.    1393.54  E(vib)   ...       0.00 
freq.    1396.76  E(vib)   ...       0.00 
freq.    1398.18  E(vib)   ...       0.00 
freq.    1398.32  E(vib)   ...       0.00 
freq.    1400.97  E(vib)   ...       0.00 
freq.    1404.62  E(vib)   ...       0.00 
freq.    1404.72  E(vib)   ...       0.00 
freq.    1408.53  E(vib)   ...       0.00 
freq.    1415.93  E(vib)   ...       0.00 
freq.    1423.83  E(vib)   ...       0.00 
freq.    1426.88  E(vib)   ...       0.00 
freq.    1426.92  E(vib)   ...       0.00 
freq.    1434.38  E(vib)   ...       0.00 
freq.    1459.54  E(vib)   ...       0.00 
freq.    1460.28  E(vib)   ...       0.00 
freq.    1471.44  E(vib)   ...       0.00 
freq.    1475.73  E(vib)   ...       0.00 
freq.    1475.87  E(vib)   ...       0.00 
freq.    1478.49  E(vib)   ...       0.00 
freq.    1478.68  E(vib)   ...       0.00 
freq.    1484.43  E(vib)   ...       0.00 
freq.    1484.47  E(vib)   ...       0.00 
freq.    1487.65  E(vib)   ...       0.00 
freq.    1488.62  E(vib)   ...       0.00 
freq.    1493.83  E(vib)   ...       0.00 
freq.    1496.86  E(vib)   ...       0.00 
freq.    1502.90  E(vib)   ...       0.00 
freq.    1509.52  E(vib)   ...       0.00 
freq.    1513.15  E(vib)   ...       0.00 
freq.    1560.09  E(vib)   ...       0.00 
freq.    1562.77  E(vib)   ...       0.00 
freq.    1563.14  E(vib)   ...       0.00 
freq.    1599.03  E(vib)   ...       0.00 
freq.    1599.14  E(vib)   ...       0.00 
freq.    1611.70  E(vib)   ...       0.00 
freq.    1615.58  E(vib)   ...       0.00 
freq.    1615.77  E(vib)   ...       0.00 
freq.    1811.48  E(vib)   ...       0.00 
freq.    1922.28  E(vib)   ...       0.00 
freq.    2920.20  E(vib)   ...       0.00 
freq.    2922.56  E(vib)   ...       0.00 
freq.    2971.76  E(vib)   ...       0.00 
freq.    2972.21  E(vib)   ...       0.00 
freq.    2985.27  E(vib)   ...       0.00 
freq.    2985.31  E(vib)   ...       0.00 
freq.    2991.98  E(vib)   ...       0.00 
freq.    2992.18  E(vib)   ...       0.00 
freq.    3025.74  E(vib)   ...       0.00 
freq.    3025.90  E(vib)   ...       0.00 
freq.    3035.80  E(vib)   ...       0.00 
freq.    3035.82  E(vib)   ...       0.00 
freq.    3044.39  E(vib)   ...       0.00 
freq.    3044.60  E(vib)   ...       0.00 
freq.    3061.45  E(vib)   ...       0.00 
freq.    3061.47  E(vib)   ...       0.00 
freq.    3063.47  E(vib)   ...       0.00 
freq.    3063.53  E(vib)   ...       0.00 
freq.    3070.15  E(vib)   ...       0.00 
freq.    3070.37  E(vib)   ...       0.00 
freq.    3075.34  E(vib)   ...       0.00 
freq.    3075.42  E(vib)   ...       0.00 
freq.    3109.26  E(vib)   ...       0.00 
freq.    3109.27  E(vib)   ...       0.00 
freq.    3113.64  E(vib)   ...       0.00 
freq.    3113.74  E(vib)   ...       0.00 
freq.    3134.04  E(vib)   ...       0.00 
freq.    3143.40  E(vib)   ...       0.00 
freq.    3157.31  E(vib)   ...       0.00 
freq.    3224.84  E(vib)   ...       0.00 
freq.    3224.87  E(vib)   ...       0.00 
freq.    3247.40  E(vib)   ...       0.00 
freq.    3247.58  E(vib)   ...       0.00 

------------
INNER ENERGY
------------

The inner energy is: U= E(el) + E(ZPE) + E(vib) + E(rot) + E(trans)
    E(el)   - is the total energy from the electronic structure calculation
              = E(kin-el) + E(nuc-el) + E(el-el) + E(nuc-nuc)
    E(ZPE)  - the the zero temperature vibrational energy from the frequency calculation
    E(vib)  - the the finite temperature correction to E(ZPE) due to population
              of excited vibrational states
    E(rot)  - is the rotational thermal energy
    E(trans)- is the translational thermal energy

Summary of contributions to the inner energy U:
Electronic energy                ...  -1685.40023599 Eh
Zero point energy                ...      0.58879784 Eh     369.48 kcal/mol
Thermal vibrational correction   ...      0.03543708 Eh      22.24 kcal/mol
Thermal rotational correction    ...      0.00141627 Eh       0.89 kcal/mol
Thermal translational correction ...      0.00141627 Eh       0.89 kcal/mol
-----------------------------------------------------------------------
Total thermal energy                  -1684.77316853 Eh


Summary of corrections to the electronic energy:
(perhaps to be used in another calculation)
Total thermal correction                  0.03826962 Eh      24.01 kcal/mol
Non-thermal (ZPE) correction              0.58879784 Eh     369.48 kcal/mol
-----------------------------------------------------------------------
Total correction                          0.62706746 Eh     393.49 kcal/mol


--------
ENTHALPY
--------

The enthalpy is H = U + kB*T
                kB is Boltzmann's constant
Total free energy                 ...  -1684.77316853 Eh 
Thermal Enthalpy correction       ...      0.00094421 Eh       0.59 kcal/mol
-----------------------------------------------------------------------
Total Enthalpy                    ...  -1684.77222432 Eh


Vibrational entropy computed according to the QRRHO of S. Grimme
Chem.Eur.J. 2012 18 9955


-------
ENTROPY
-------

The entropy contributions are T*S = T*(S(el)+S(vib)+S(rot)+S(trans)
     S(el)   - electronic entropy
     S(vib)  - vibrational entropy
     S(rot)  - rotational entropy
     S(trans)- translational entropy
The entropies will be listed as mutliplied by the temperature to get
units of energy

Electronic entropy                ...      0.00000000 Eh      0.00 kcal/mol
Vibrational entropy               ...      0.06335315 Eh     39.75 kcal/mol
Rotational entropy                ...      0.01679671 Eh     10.54 kcal/mol
Translational entropy             ...      0.02142467 Eh     13.44 kcal/mol
-----------------------------------------------------------------------
Final entropy term                ...      0.10157453 Eh     63.74 kcal/mol


CAUTION: The rotational entropy is not quite correctly treated here
         because it includes a symmetry number that is not yet correctly
         implemented in ORCA!
For a nonlinear molecule the correct rotational entropy is:
    S(rot) = R*(ln(qrot/sn)+1.5)
    R    = 8.31441 J/mol/K = 1.987191683e-3 kcal/mol/K
    qrot = 35616592.9905855
    sn is the rotational symmetry number. We have assumed 3 here
       if it is different for your molecule then you should correct
       the printed rotational entropy by manually evaluating the equation
       as given above

For convenience we print out the resulting values for sn=1 - 12:
 sn= 1  qrot/sn= 35616592.9906 T*S(rot)=    11.19 kcal/mol T*S(tot)=    64.39 kcal/mol
 sn= 2  qrot/sn= 17808296.4953 T*S(rot)=    10.78 kcal/mol T*S(tot)=    63.98 kcal/mol
 sn= 3  qrot/sn= 11872197.6635 T*S(rot)=    10.54 kcal/mol T*S(tot)=    63.74 kcal/mol
 sn= 4  qrot/sn= 8904148.2476 T*S(rot)=    10.37 kcal/mol T*S(tot)=    63.57 kcal/mol
 sn= 5  qrot/sn= 7123318.5981 T*S(rot)=    10.24 kcal/mol T*S(tot)=    63.44 kcal/mol
 sn= 6  qrot/sn= 5936098.8318 T*S(rot)=    10.13 kcal/mol T*S(tot)=    63.33 kcal/mol
 sn= 7  qrot/sn= 5088084.7129 T*S(rot)=    10.04 kcal/mol T*S(tot)=    63.24 kcal/mol
 sn= 8  qrot/sn= 4452074.1238 T*S(rot)=     9.96 kcal/mol T*S(tot)=    63.16 kcal/mol
 sn= 9  qrot/sn= 3957399.2212 T*S(rot)=     9.89 kcal/mol T*S(tot)=    63.09 kcal/mol
 sn=10  qrot/sn= 3561659.2991 T*S(rot)=     9.83 kcal/mol T*S(tot)=    63.03 kcal/mol
 sn=11  qrot/sn= 3237872.0901 T*S(rot)=     9.77 kcal/mol T*S(tot)=    62.97 kcal/mol
 sn=12  qrot/sn= 2968049.4159 T*S(rot)=     9.72 kcal/mol T*S(tot)=    62.92 kcal/mol


-------------------
GIBBS FREE ENTHALPY
-------------------

The Gibbs free enthalpy is G = H - T*S

Total enthalpy                    ...  -1684.77222432 Eh 
Total entropy correction          ...     -0.10157453 Eh    -63.74 kcal/mol
-----------------------------------------------------------------------
Final Gibbs free enthalpy         ...  -1684.87379885 Eh

For completeness - the Gibbs free enthalpy minus the electronic energy
G-E(el)                           ...      0.52643714 Eh    330.34 kcal/mol


Total Time for Numerical Frequencies  :     29478.136 sec

Timings for individual modules:

Sum of individual times         ...     1294.916 sec (=  21.582 min)
GTO integral calculation        ...       67.313 sec (=   1.122 min)   5.2 %
SCF iterations                  ...      940.152 sec (=  15.669 min)  72.6 %
SCF Gradient evaluation         ...      282.822 sec (=   4.714 min)  21.8 %
Geometry relaxation             ...        4.629 sec (=   0.077 min)   0.4 %
                             ****ORCA TERMINATED NORMALLY****
TOTAL RUN TIME: 0 days 8 hours 31 minutes 53 seconds 226 msec
