 Entering Gaussian System, Link 0=g09
 Initial command:
 /usr/local/Gaussian/gaussian-09-D01-sse4_2/g09/l1.exe "/tmp/Gau-4794.inp" -scrdir="/tmp/"
 Default linda workers:  node-022,node-021
 Default is to use   4 SMP processors on each worker.
 Entering Link 1 = /usr/local/Gaussian/gaussian-09-D01-sse4_2/g09/l1.exe PID=      4795.
  
 Copyright (c) 1988,1990,1992,1993,1995,1998,2003,2009,2013,
            Gaussian, Inc.  All Rights Reserved.
  
 This is part of the Gaussian(R) 09 program.  It is based on
 the Gaussian(R) 03 system (copyright 2003, Gaussian, Inc.),
 the Gaussian(R) 98 system (copyright 1998, Gaussian, Inc.),
 the Gaussian(R) 94 system (copyright 1995, Gaussian, Inc.),
 the Gaussian 92(TM) system (copyright 1992, Gaussian, Inc.),
 the Gaussian 90(TM) system (copyright 1990, Gaussian, Inc.),
 the Gaussian 88(TM) system (copyright 1988, Gaussian, Inc.),
 the Gaussian 86(TM) system (copyright 1986, Carnegie Mellon
 University), and the Gaussian 82(TM) system (copyright 1983,
 Carnegie Mellon University). Gaussian is a federally registered
 trademark of Gaussian, Inc.
  
 This software contains proprietary and confidential information,
 including trade secrets, belonging to Gaussian, Inc.
  
 This software is provided under written license and may be
 used, copied, transmitted, or stored only in accord with that
 written license.
  
 The following legend is applicable only to US Government
 contracts under FAR:
  
                    RESTRICTED RIGHTS LEGEND
  
 Use, reproduction and disclosure by the US Government is
 subject to restrictions as set forth in subparagraphs (a)
 and (c) of the Commercial Computer Software - Restricted
 Rights clause in FAR 52.227-19.
  
 Gaussian, Inc.
 340 Quinnipiac St., Bldg. 40, Wallingford CT 06492
  
  
 ---------------------------------------------------------------
 Warning -- This program may not be used in any manner that
 competes with the business of Gaussian, Inc. or will provide
 assistance to any competitor of Gaussian, Inc.  The licensee
 of this program is prohibited from giving any competitor of
 Gaussian, Inc. access to this program.  By using this program,
 the user acknowledges that Gaussian, Inc. is engaged in the
 business of creating and licensing software in the field of
 computational chemistry and represents and warrants to the
 licensee that it is not a competitor of Gaussian, Inc. and that
 it will not use this program in any manner prohibited above.
 ---------------------------------------------------------------
  

 Cite this work as:
 Gaussian 09, Revision D.01,
 M. J. Frisch, G. W. Trucks, H. B. Schlegel, G. E. Scuseria, 
 M. A. Robb, J. R. Cheeseman, G. Scalmani, V. Barone, B. Mennucci, 
 G. A. Petersson, H. Nakatsuji, M. Caricato, X. Li, H. P. Hratchian, 
 A. F. Izmaylov, J. Bloino, G. Zheng, J. L. Sonnenberg, M. Hada, 
 M. Ehara, K. Toyota, R. Fukuda, J. Hasegawa, M. Ishida, T. Nakajima, 
 Y. Honda, O. Kitao, H. Nakai, T. Vreven, J. A. Montgomery, Jr., 
 J. E. Peralta, F. Ogliaro, M. Bearpark, J. J. Heyd, E. Brothers, 
 K. N. Kudin, V. N. Staroverov, T. Keith, R. Kobayashi, J. Normand, 
 K. Raghavachari, A. Rendell, J. C. Burant, S. S. Iyengar, J. Tomasi, 
 M. Cossi, N. Rega, J. M. Millam, M. Klene, J. E. Knox, J. B. Cross, 
 V. Bakken, C. Adamo, J. Jaramillo, R. Gomperts, R. E. Stratmann, 
 O. Yazyev, A. J. Austin, R. Cammi, C. Pomelli, J. W. Ochterski, 
 R. L. Martin, K. Morokuma, V. G. Zakrzewski, G. A. Voth, 
 P. Salvador, J. J. Dannenberg, S. Dapprich, A. D. Daniels, 
 O. Farkas, J. B. Foresman, J. V. Ortiz, J. Cioslowski, 
 and D. J. Fox, Gaussian, Inc., Wallingford CT, 2013.
 
 ******************************************
 Gaussian 09:  ES64L-G09RevD.01 24-Apr-2013
                 5-May-2016 
 ******************************************
 %chk=NiDMSO12.chk
 %mem=24GB
 SetLPE:  input flags="-opt "Tsnet.Node.lindarsharg: ssh" "
 SetLPE:    new flags="-opt "Tsnet.Node.lindarsharg: ssh"  -nodelist 'node-022.eth.hpc.cc.spbu.ru node-021.eth.hpc.cc.spbu.ru'"
 Will use up to    2 processors via Linda.
 ----------------------------------------------------------------------
 #P B3LYP/Def2TZVP Opt(MaxCycles=1000) Freq SCF=XQC SCRF(CPCM,Solvent=D
 iMethylSulfoxide)
 ----------------------------------------------------------------------
 1/6=1000,14=-1,18=20,19=15,26=3,38=1/1,3;
 2/9=110,12=2,17=6,18=5,40=1/2;
 3/5=44,7=101,11=2,16=1,25=1,30=1,70=2101,71=1,72=21,74=-5/1,2,3;
 4//1;
 5/5=2,8=3,13=1,38=5,53=21/2,8;
 6/7=2,8=2,9=2,10=2,28=1/1;
 7//1,2,3,16;
 1/6=1000,14=-1,18=20,19=15,26=3/3(2);
 2/9=110/2;
 99//99;
 2/9=110/2;
 3/5=44,7=101,11=2,16=1,25=1,30=1,70=2105,71=1,72=21,74=-5/1,2,3;
 4/5=5,16=3,69=1/1;
 5/5=2,8=3,13=1,38=5,53=21/2,8;
 7//1,2,3,16;
 1/6=1000,14=-1,18=20,19=15,26=3/3(-5);
 2/9=110/2;
 6/7=2,8=2,9=2,10=2,19=2,28=1/1;
 99/9=1/99;
 Leave Link    1 at Thu May  5 13:59:19 2016, MaxMem=  3221225472 cpu:         0.2
 (Enter /usr/local/Gaussian/gaussian-09-D01-sse4_2/g09/l101.exe)
 ----------------------------------------------------------------------
 Preliminary low-level optimization and frequencies (high-spin, octahed
 ral)
 ----------------------------------------------------------------------
 Symbolic Z-matrix:
 Charge = -2 Multiplicity = 3
 Ni                   -1.12054  -2.54746  -0.09846 
 Cl                   -0.40719  -1.53867   1.64884 
 Cl                   -0.40723  -4.56508  -0.09846 
 Cl                   -3.26054  -2.54744  -0.09846 
 Cl                   -0.40719  -1.53867  -1.84577 
 
 NAtoms=      5 NQM=        5 NQMF=       0 NMMI=      0 NMMIF=      0
                NMic=       0 NMicF=      0.
                    Isotopes and Nuclear Properties:
 (Nuclear quadrupole moments (NQMom) in fm**2, nuclear magnetic moments (NMagM)
  in nuclear magnetons)

  Atom         1           2           3           4           5
 IAtWgt=          58          35          35          35          35
 AtmWgt=  57.9353471  34.9688527  34.9688527  34.9688527  34.9688527
 NucSpn=           0           3           3           3           3
 AtZEff=   0.0000000   0.0000000   0.0000000   0.0000000   0.0000000
 NQMom=    0.0000000  -8.1650000  -8.1650000  -8.1650000  -8.1650000
 NMagM=    0.0000000   0.8218740   0.8218740   0.8218740   0.8218740
 AtZNuc=  28.0000000  17.0000000  17.0000000  17.0000000  17.0000000
 Leave Link  101 at Thu May  5 13:59:19 2016, MaxMem=  3221225472 cpu:         1.2
 (Enter /usr/local/Gaussian/gaussian-09-D01-sse4_2/g09/l103.exe)

 GradGradGradGradGradGradGradGradGradGradGradGradGradGradGradGradGradGrad
 Berny optimization.
 Initialization pass.
                           ----------------------------
                           !    Initial Parameters    !
                           ! (Angstroms and Degrees)  !
 --------------------------                            --------------------------
 ! Name  Definition              Value          Derivative Info.                !
 --------------------------------------------------------------------------------
 ! R1    R(1,2)                  2.14           estimate D2E/DX2                !
 ! R2    R(1,3)                  2.14           estimate D2E/DX2                !
 ! R3    R(1,4)                  2.14           estimate D2E/DX2                !
 ! R4    R(1,5)                  2.14           estimate D2E/DX2                !
 ! A1    A(2,1,3)              109.4712         estimate D2E/DX2                !
 ! A2    A(2,1,4)              109.4712         estimate D2E/DX2                !
 ! A3    A(2,1,5)              109.4713         estimate D2E/DX2                !
 ! A4    A(3,1,4)              109.4712         estimate D2E/DX2                !
 ! A5    A(3,1,5)              109.4712         estimate D2E/DX2                !
 ! A6    A(4,1,5)              109.4712         estimate D2E/DX2                !
 ! D1    D(2,1,4,3)           -120.0            estimate D2E/DX2                !
 ! D2    D(2,1,5,3)            120.0            estimate D2E/DX2                !
 ! D3    D(2,1,5,4)           -120.0            estimate D2E/DX2                !
 ! D4    D(3,1,5,4)            120.0            estimate D2E/DX2                !
 --------------------------------------------------------------------------------
 Trust Radius=3.00D-01 FncErr=1.00D-07 GrdErr=1.00D-06
 Number of steps in this run=    100 maximum allowed number of steps=    100.
 GradGradGradGradGradGradGradGradGradGradGradGradGradGradGradGradGradGrad

 Leave Link  103 at Thu May  5 13:59:19 2016, MaxMem=  3221225472 cpu:         0.0
 (Enter /usr/local/Gaussian/gaussian-09-D01-sse4_2/g09/l202.exe)
                          Input orientation:                          
 ---------------------------------------------------------------------
 Center     Atomic      Atomic             Coordinates (Angstroms)
 Number     Number       Type             X           Y           Z
 ---------------------------------------------------------------------
      1         28           0       -1.120540   -2.547465   -0.098463
      2         17           0       -0.407194   -1.538668    1.648840
      3         17           0       -0.407231   -4.565085   -0.098463
      4         17           0       -3.260540   -2.547438   -0.098463
      5         17           0       -0.407194   -1.538668   -1.845766
 ---------------------------------------------------------------------
                    Distance matrix (angstroms):
                    1          2          3          4          5
     1  Ni   0.000000
     2  Cl   2.140000   0.000000
     3  Cl   2.140000   3.494605   0.000000
     4  Cl   2.140000   3.494605   3.494606   0.000000
     5  Cl   2.140000   3.494606   3.494605   3.494605   0.000000
 Fill:  no match for NOp=  2 IAt=    2 RMin= 3.58D+00
 Fill:  no match for NOp=  2 IAt=    3 RMin= 3.30D+00
 Fill:  no match for NOp=  2 IAt=    4 RMin= 2.87D+00
 Fill:  no match for NOp=  2 IAt=    5 RMin= 1.71D+00
 Error permuting atoms in Fill, NOp=  2 RMinMx= 3.58D+00 LPerm:
   1   0   0   0   0
 Symmetry turned off:
 Internal error in symmetry package.
 Rotational constants (GHZ):      1.1834219      1.1834218      1.1834214
 Leave Link  202 at Thu May  5 13:59:19 2016, MaxMem=  3221225472 cpu:         0.0
 (Enter /usr/local/Gaussian/gaussian-09-D01-sse4_2/g09/l301.exe)
 Standard basis: def2TZVP (5D, 7F)
 Ernie: Thresh=  0.10000D-02 Tol=  0.10000D-05 Strict=F.
   193 basis functions,   378 primitive gaussians,   220 cartesian basis functions
    50 alpha electrons       48 beta electrons
       nuclear repulsion energy       733.3935688269 Hartrees.
 IExCor=  402 DFT=T Ex+Corr=B3LYP ExCW=0 ScaHFX=  0.200000
 ScaDFX=  0.800000  0.720000  1.000000  0.810000 ScalE2=  1.000000  1.000000
 IRadAn=      0 IRanWt=     -1 IRanGd=            0 ICorTp=0 IEmpDi=  4
 NAtoms=    5 NActive=    5 NUniq=    5 SFac= 1.00D+00 NAtFMM=   60 NAOKFM=F Big=F
 Integral buffers will be    131072 words long.
 Raffenetti 2 integral format.
 Two-electron integral symmetry is turned off.
 ------------------------------------------------------------------------------
 Polarizable Continuum Model (PCM)
 =================================
 Model                : C-PCM.
 Atomic radii         : UFF (Universal Force Field).
 Polarization charges : Total charges.
 Charge compensation  : None.
 Solution method      : On-the-fly selection.
 Cavity type          : Scaled VdW (van der Waals Surface) (Alpha=1.100).
 Cavity algorithm     : GePol (No added spheres)
                        Default sphere list used, NSphG=    5.
                        Lebedev-Laikov grids with approx.  5.0 points / Ang**2.
                        Smoothing algorithm: Karplus/York (Gamma=1.0000).
                        Polarization charges: spherical gaussians, with
                                              point-specific exponents (IZeta= 3).
                        Self-potential: point-specific (ISelfS= 7).
                        Self-field    : sphere-specific E.n sum rule (ISelfD= 2).
 1st derivatives      : Analytical E(r).r(x)/FMM algorithm (CHGder, D1EAlg=3).
                        Cavity 1st derivative terms included.
 Solvent              : DiMethylSulfoxide, Eps=  46.826000 Eps(inf)=   2.007889
 ------------------------------------------------------------------------------
 Spheres list:
 ISph  on   Nord     Re0    Alpha      Xe            Ye            Ze
    1  Ni      1    1.4170  1.100     -1.120540     -2.547465     -0.098463
    2  Cl      2    1.9735  1.100     -0.407194     -1.538668      1.648840
    3  Cl      3    1.9735  1.100     -0.407231     -4.565085     -0.098463
    4  Cl      4    1.9735  1.100     -3.260540     -2.547438     -0.098463
    5  Cl      5    1.9735  1.100     -0.407194     -1.538668     -1.845766
 ------------------------------------------------------------------------------
 GePol: Number of generator spheres                  =       5
 GePol: Total number of spheres                      =       5
 GePol: Number of exposed spheres                    =       5 (100.00%)
 GePol: Number of points                             =     944
 GePol: Average weight of points                     =       0.18
 GePol: Minimum weight of points                     =   0.35D-04
 GePol: Maximum weight of points                     =    0.21616
 GePol: Number of points with low weight             =      14
 GePol: Fraction of low-weight points (<1% of avg)   =       1.48%
 GePol: Cavity surface area                          =    173.719 Ang**2
 GePol: Cavity volume                                =    157.711 Ang**3
 Leave Link  301 at Thu May  5 13:59:19 2016, MaxMem=  3221225472 cpu:         0.2
 (Enter /usr/local/Gaussian/gaussian-09-D01-sse4_2/g09/linda-exe/l302.exel)
 NPDir=0 NMtPBC=     1 NCelOv=     1 NCel=       1 NClECP=     1 NCelD=      1
         NCelK=      1 NCelE2=     1 NClLst=     1 CellRange=     0.0.
 One-electron integrals computed using PRISM.
   1 Symmetry operations used in ECPInt.
 ECPInt:  NShTT=    2278 NPrTT=   10643 LenC2=    2111 LenP2D=    6983.
 LDataN:  DoStor=T MaxTD1= 6 Len=  172
 NBasis=   193 RedAO= T EigKep=  1.02D-02  NBF=   193
 NBsUse=   193 1.00D-06 EigRej= -1.00D+00 NBFU=   193
 Precomputing XC quadrature grid using
 IXCGrd= 4 IRadAn=           0 IRanWt=          -1 IRanGd=           0 AccXCQ= 0.00D+00.
 Generated NRdTot=       0 NPtTot=           0 NUsed=           0 NTot=          32
 NSgBfM=   215   215   215   215   215 MxSgAt=     5 MxSgA2=     5.
 Leave Link  302 at Thu May  5 13:59:24 2016, MaxMem=  3221225472 cpu:        13.7
 (Enter /usr/local/Gaussian/gaussian-09-D01-sse4_2/g09/l303.exe)
 DipDrv:  MaxL=1.
 Leave Link  303 at Thu May  5 13:59:24 2016, MaxMem=  3221225472 cpu:         0.1
 (Enter /usr/local/Gaussian/gaussian-09-D01-sse4_2/g09/linda-exe/l401.exel)
 ExpMin= 4.68D-02 ExpMax= 3.52D+05 ExpMxC= 3.39D+03 IAcc=2 IRadAn=         4 AccDes= 0.00D+00
 Harris functional with IExCor=  402 and IRadAn=       4 diagonalized for initial guess.
 HarFok:  IExCor=  402 AccDes= 0.00D+00 IRadAn=         4 IDoV= 1 UseB2=F ITyADJ=14
 ICtDFT=  3500011 ScaDFX=  1.000000  1.000000  1.000000  1.000000
 FoFCou: FMM=F IPFlag=           0 FMFlag=      100000 FMFlg1=           0
         NFxFlg=           0 DoJE=T BraDBF=F KetDBF=T FulRan=T
         wScrn=  0.000000 ICntrl=     500 IOpCl=  0 I1Cent=   200000004 NGrid=           0
         NMat0=    1 NMatS0=      1 NMatT0=    0 NMatD0=    1 NMtDS0=    0 NMtDT0=    0
 Symmetry not used in FoFCou.
 Harris En= -3349.54695738534    
 JPrj=0 DoOrth=F DoCkMO=F.
 Initial guess <Sx>= 0.0000 <Sy>= 0.0000 <Sz>= 1.0000 <S**2>= 2.0000 S= 1.0000
 Leave Link  401 at Thu May  5 13:59:25 2016, MaxMem=  3221225472 cpu:         1.7
 (Enter /usr/local/Gaussian/gaussian-09-D01-sse4_2/g09/linda-exe/l502.exel)
 UHF open shell SCF:
 Using DIIS extrapolation, IDIIS=  1040.
 Two-electron integral symmetry not used.
 Keep R1 and R2 ints in memory in canonical form, NReq=356045174.
 IVT=      153792 IEndB=      153792 NGot=  3221225472 MDV=  2870577119
 LenX=  2870577119 LenY=  2870528278
 Requested convergence on RMS density matrix=1.00D-08 within  64 cycles.
 Requested convergence on MAX density matrix=1.00D-06.
 Requested convergence on             energy=1.00D-06.
 No special actions if energy rises.
 FoFCou: FMM=F IPFlag=           0 FMFlag=           0 FMFlg1=           0
         NFxFlg=           0 DoJE=F BraDBF=F KetDBF=F FulRan=T
         wScrn=  0.000000 ICntrl=     600 IOpCl=  0 I1Cent=           0 NGrid=           0
         NMat0=    1 NMatS0=  18721 NMatT0=    0 NMatD0=    1 NMtDS0=    0 NMtDT0=    0
 Symmetry not used in FoFCou.

 Cycle   1  Pass 1  IDiag  1:
 Inv3:  Mode=1 IEnd=     2673408.
 Iteration    1 A*A^-1 deviation from unit magnitude is 3.55D-15 for    940.
 Iteration    1 A*A^-1 deviation from orthogonality  is 1.23D-15 for    893    658.
 Iteration    1 A^-1*A deviation from unit magnitude is 3.55D-15 for    917.
 Iteration    1 A^-1*A deviation from orthogonality  is 9.75D-16 for    721    167.
 E= -3349.57746153018    
 DIIS: error= 7.63D-02 at cycle   1 NSaved=   1.
 NSaved= 1 IEnMin= 1 EnMin= -3349.57746153018     IErMin= 1 ErrMin= 7.63D-02
 ErrMax= 7.63D-02  0.00D+00 EMaxC= 1.00D-01 BMatC= 2.11D+00 BMatP= 2.11D+00
 IDIUse=3 WtCom= 2.37D-01 WtEn= 7.63D-01
 Coeff-Com:  0.100D+01
 Coeff-En:   0.100D+01
 Coeff:      0.100D+01
 Gap=     0.507 Goal=   None    Shift=    0.000
 Gap=     0.115 Goal=   None    Shift=    0.000
 GapD=    0.115 DampG=1.000 DampE=0.250 DampFc=0.2500 IDamp=-1.
 Damping current iteration by 2.50D-01
 RMSDP=4.60D-03 MaxDP=2.60D-01              OVMax= 6.39D-01

 Cycle   2  Pass 1  IDiag  1:
 E= -3349.60268185781     Delta-E=       -0.025220327625 Rises=F Damp=T
 DIIS: error= 2.46D-02 at cycle   2 NSaved=   2.
 NSaved= 2 IEnMin= 2 EnMin= -3349.60268185781     IErMin= 2 ErrMin= 2.46D-02
 ErrMax= 2.46D-02  0.00D+00 EMaxC= 1.00D-01 BMatC= 3.40D-01 BMatP= 2.11D+00
 IDIUse=3 WtCom= 7.54D-01 WtEn= 2.46D-01
 Coeff-Com:  0.767D-01 0.923D+00
 Coeff-En:   0.416D+00 0.584D+00
 Coeff:      0.160D+00 0.840D+00
 Gap=     0.279 Goal=   None    Shift=    0.000
 Gap=     0.081 Goal=   None    Shift=    0.000
 RMSDP=2.17D-03 MaxDP=7.36D-02 DE=-2.52D-02 OVMax= 6.59D-01

 Cycle   3  Pass 1  IDiag  1:
 E= -3349.74003893794     Delta-E=       -0.137357080139 Rises=F Damp=F
 DIIS: error= 1.82D-02 at cycle   3 NSaved=   3.
 NSaved= 3 IEnMin= 3 EnMin= -3349.74003893794     IErMin= 3 ErrMin= 1.82D-02
 ErrMax= 1.82D-02  0.00D+00 EMaxC= 1.00D-01 BMatC= 2.22D-01 BMatP= 3.40D-01
 IDIUse=3 WtCom= 8.18D-01 WtEn= 1.82D-01
 Coeff-Com: -0.115D+00 0.461D+00 0.654D+00
 Coeff-En:   0.000D+00 0.000D+00 0.100D+01
 Coeff:     -0.944D-01 0.377D+00 0.717D+00
 Gap=     0.298 Goal=   None    Shift=    0.000
 Gap=     0.113 Goal=   None    Shift=    0.000
 RMSDP=1.61D-03 MaxDP=5.24D-02 DE=-1.37D-01 OVMax= 9.78D-02

 Cycle   4  Pass 1  IDiag  1:
 E= -3349.76318670502     Delta-E=       -0.023147767072 Rises=F Damp=F
 DIIS: error= 1.25D-02 at cycle   4 NSaved=   4.
 NSaved= 4 IEnMin= 4 EnMin= -3349.76318670502     IErMin= 4 ErrMin= 1.25D-02
 ErrMax= 1.25D-02  0.00D+00 EMaxC= 1.00D-01 BMatC= 1.48D-01 BMatP= 2.22D-01
 IDIUse=3 WtCom= 8.75D-01 WtEn= 1.25D-01
 Coeff-Com:  0.495D-01-0.285D-01 0.381D+00 0.598D+00
 Coeff-En:   0.000D+00 0.000D+00 0.364D+00 0.636D+00
 Coeff:      0.433D-01-0.250D-01 0.379D+00 0.603D+00
 Gap=     0.264 Goal=   None    Shift=    0.000
 Gap=     0.122 Goal=   None    Shift=    0.000
 RMSDP=6.33D-04 MaxDP=2.30D-02 DE=-2.31D-02 OVMax= 7.09D-02

 Cycle   5  Pass 1  IDiag  1:
 E= -3349.78707630816     Delta-E=       -0.023889603140 Rises=F Damp=F
 DIIS: error= 2.32D-03 at cycle   5 NSaved=   5.
 NSaved= 5 IEnMin= 5 EnMin= -3349.78707630816     IErMin= 5 ErrMin= 2.32D-03
 ErrMax= 2.32D-03  0.00D+00 EMaxC= 1.00D-01 BMatC= 4.81D-03 BMatP= 1.48D-01
 IDIUse=3 WtCom= 9.77D-01 WtEn= 2.32D-02
 Coeff-Com: -0.378D-01 0.420D-01-0.306D-01 0.334D-02 0.102D+01
 Coeff-En:   0.000D+00 0.000D+00 0.000D+00 0.000D+00 0.100D+01
 Coeff:     -0.369D-01 0.410D-01-0.298D-01 0.326D-02 0.102D+01
 Gap=     0.266 Goal=   None    Shift=    0.000
 Gap=     0.126 Goal=   None    Shift=    0.000
 RMSDP=1.82D-04 MaxDP=1.38D-02 DE=-2.39D-02 OVMax= 3.73D-02

 Cycle   6  Pass 1  IDiag  1:
 E= -3349.78823106535     Delta-E=       -0.001154757197 Rises=F Damp=F
 DIIS: error= 7.57D-04 at cycle   6 NSaved=   6.
 NSaved= 6 IEnMin= 6 EnMin= -3349.78823106535     IErMin= 6 ErrMin= 7.57D-04
 ErrMax= 7.57D-04  0.00D+00 EMaxC= 1.00D-01 BMatC= 4.12D-04 BMatP= 4.81D-03
 IDIUse=3 WtCom= 9.92D-01 WtEn= 7.57D-03
 Coeff-Com: -0.163D-01 0.176D-01-0.334D-01-0.277D-01 0.246D+00 0.814D+00
 Coeff-En:   0.000D+00 0.000D+00 0.000D+00 0.000D+00 0.000D+00 0.100D+01
 Coeff:     -0.162D-01 0.174D-01-0.332D-01-0.275D-01 0.244D+00 0.815D+00
 Gap=     0.267 Goal=   None    Shift=    0.000
 Gap=     0.128 Goal=   None    Shift=    0.000
 RMSDP=1.06D-04 MaxDP=8.61D-03 DE=-1.15D-03 OVMax= 2.55D-02

 Cycle   7  Pass 1  IDiag  1:
 E= -3349.78855210606     Delta-E=       -0.000321040710 Rises=F Damp=F
 DIIS: error= 5.96D-04 at cycle   7 NSaved=   7.
 NSaved= 7 IEnMin= 7 EnMin= -3349.78855210606     IErMin= 7 ErrMin= 5.96D-04
 ErrMax= 5.96D-04  0.00D+00 EMaxC= 1.00D-01 BMatC= 2.34D-04 BMatP= 4.12D-04
 IDIUse=3 WtCom= 9.94D-01 WtEn= 5.96D-03
 Coeff-Com:  0.117D-01-0.842D-02 0.374D-02-0.659D-02-0.536D+00 0.275D+00
 Coeff-Com:  0.126D+01
 Coeff-En:   0.000D+00 0.000D+00 0.000D+00 0.000D+00 0.000D+00 0.000D+00
 Coeff-En:   0.100D+01
 Coeff:      0.116D-01-0.837D-02 0.371D-02-0.655D-02-0.533D+00 0.273D+00
 Coeff:      0.126D+01
 Gap=     0.269 Goal=   None    Shift=    0.000
 Gap=     0.131 Goal=   None    Shift=    0.000
 RMSDP=1.58D-04 MaxDP=1.44D-02 DE=-3.21D-04 OVMax= 3.82D-02

 Cycle   8  Pass 1  IDiag  1:
 E= -3349.78887434231     Delta-E=       -0.000322236242 Rises=F Damp=F
 DIIS: error= 2.58D-04 at cycle   8 NSaved=   8.
 NSaved= 8 IEnMin= 8 EnMin= -3349.78887434231     IErMin= 8 ErrMin= 2.58D-04
 ErrMax= 2.58D-04  0.00D+00 EMaxC= 1.00D-01 BMatC= 4.75D-05 BMatP= 2.34D-04
 IDIUse=3 WtCom= 9.97D-01 WtEn= 2.58D-03
 Coeff-Com:  0.568D-02-0.649D-02 0.156D-01 0.151D-01 0.734D-01-0.234D+00
 Coeff-Com: -0.405D+00 0.154D+01
 Coeff-En:   0.000D+00 0.000D+00 0.000D+00 0.000D+00 0.000D+00 0.000D+00
 Coeff-En:   0.000D+00 0.100D+01
 Coeff:      0.567D-02-0.648D-02 0.155D-01 0.150D-01 0.732D-01-0.233D+00
 Coeff:     -0.404D+00 0.153D+01
 Gap=     0.270 Goal=   None    Shift=    0.000
 Gap=     0.131 Goal=   None    Shift=    0.000
 RMSDP=9.27D-05 MaxDP=8.73D-03 DE=-3.22D-04 OVMax= 2.33D-02

 Cycle   9  Pass 1  IDiag  1:
 E= -3349.78895808990     Delta-E=       -0.000083747596 Rises=F Damp=F
 DIIS: error= 1.37D-04 at cycle   9 NSaved=   9.
 NSaved= 9 IEnMin= 9 EnMin= -3349.78895808990     IErMin= 9 ErrMin= 1.37D-04
 ErrMax= 1.37D-04  0.00D+00 EMaxC= 1.00D-01 BMatC= 1.33D-05 BMatP= 4.75D-05
 IDIUse=3 WtCom= 9.99D-01 WtEn= 1.37D-03
 Coeff-Com:  0.132D-02-0.314D-02 0.118D-01 0.155D-01 0.173D+00-0.213D+00
 Coeff-Com: -0.546D+00 0.737D+00 0.824D+00
 Coeff-En:   0.000D+00 0.000D+00 0.000D+00 0.000D+00 0.000D+00 0.000D+00
 Coeff-En:   0.000D+00 0.000D+00 0.100D+01
 Coeff:      0.132D-02-0.313D-02 0.118D-01 0.155D-01 0.173D+00-0.213D+00
 Coeff:     -0.545D+00 0.736D+00 0.824D+00
 Gap=     0.270 Goal=   None    Shift=    0.000
 Gap=     0.132 Goal=   None    Shift=    0.000
 RMSDP=4.29D-05 MaxDP=3.92D-03 DE=-8.37D-05 OVMax= 1.05D-02

 Cycle  10  Pass 1  IDiag  1:
 E= -3349.78897230411     Delta-E=       -0.000014214213 Rises=F Damp=F
 DIIS: error= 4.05D-05 at cycle  10 NSaved=  10.
 NSaved=10 IEnMin=10 EnMin= -3349.78897230411     IErMin=10 ErrMin= 4.05D-05
 ErrMax= 4.05D-05  0.00D+00 EMaxC= 1.00D-01 BMatC= 1.58D-06 BMatP= 1.33D-05
 IDIUse=1 WtCom= 1.00D+00 WtEn= 0.00D+00
 Coeff-Com: -0.728D-03 0.915D-03 0.564D-03 0.679D-03 0.212D-01-0.303D-01
 Coeff-Com: -0.593D-01-0.151D-01 0.188D+00 0.894D+00
 Coeff:     -0.728D-03 0.915D-03 0.564D-03 0.679D-03 0.212D-01-0.303D-01
 Coeff:     -0.593D-01-0.151D-01 0.188D+00 0.894D+00
 Gap=     0.270 Goal=   None    Shift=    0.000
 Gap=     0.132 Goal=   None    Shift=    0.000
 RMSDP=1.13D-05 MaxDP=1.05D-03 DE=-1.42D-05 OVMax= 2.70D-03

 Cycle  11  Pass 1  IDiag  1:
 E= -3349.78897324405     Delta-E=       -0.000000939935 Rises=F Damp=F
 DIIS: error= 1.27D-05 at cycle  11 NSaved=  11.
 NSaved=11 IEnMin=11 EnMin= -3349.78897324405     IErMin=11 ErrMin= 1.27D-05
 ErrMax= 1.27D-05  0.00D+00 EMaxC= 1.00D-01 BMatC= 8.27D-08 BMatP= 1.58D-06
 IDIUse=1 WtCom= 1.00D+00 WtEn= 0.00D+00
 Coeff-Com: -0.303D-04 0.612D-04-0.504D-03-0.670D-03-0.522D-02 0.102D-01
 Coeff-Com:  0.213D-01-0.367D-01-0.291D-01 0.185D-02 0.104D+01
 Coeff:     -0.303D-04 0.612D-04-0.504D-03-0.670D-03-0.522D-02 0.102D-01
 Coeff:      0.213D-01-0.367D-01-0.291D-01 0.185D-02 0.104D+01
 Gap=     0.270 Goal=   None    Shift=    0.000
 Gap=     0.132 Goal=   None    Shift=    0.000
 RMSDP=2.41D-06 MaxDP=1.24D-04 DE=-9.40D-07 OVMax= 6.02D-04

 Cycle  12  Pass 1  IDiag  1:
 E= -3349.78897337496     Delta-E=       -0.000000130908 Rises=F Damp=F
 DIIS: error= 1.19D-05 at cycle  12 NSaved=  12.
 NSaved=12 IEnMin=12 EnMin= -3349.78897337496     IErMin=12 ErrMin= 1.19D-05
 ErrMax= 1.19D-05  0.00D+00 EMaxC= 1.00D-01 BMatC= 3.47D-08 BMatP= 8.27D-08
 IDIUse=1 WtCom= 1.00D+00 WtEn= 0.00D+00
 Coeff-Com:  0.535D-04-0.614D-04-0.228D-03-0.303D-03-0.343D-02 0.561D-02
 Coeff-Com:  0.111D-01-0.119D-01-0.223D-01-0.628D-01 0.337D+00 0.748D+00
 Coeff:      0.535D-04-0.614D-04-0.228D-03-0.303D-03-0.343D-02 0.561D-02
 Coeff:      0.111D-01-0.119D-01-0.223D-01-0.628D-01 0.337D+00 0.748D+00
 Gap=     0.270 Goal=   None    Shift=    0.000
 Gap=     0.132 Goal=   None    Shift=    0.000
 RMSDP=1.79D-06 MaxDP=9.37D-05 DE=-1.31D-07 OVMax= 4.45D-04

 Cycle  13  Pass 1  IDiag  1:
 E= -3349.78897346777     Delta-E=       -0.000000092811 Rises=F Damp=F
 DIIS: error= 1.19D-05 at cycle  13 NSaved=  13.
 NSaved=13 IEnMin=13 EnMin= -3349.78897346777     IErMin=13 ErrMin= 1.19D-05
 ErrMax= 1.19D-05  0.00D+00 EMaxC= 1.00D-01 BMatC= 3.10D-08 BMatP= 3.47D-08
 IDIUse=1 WtCom= 1.00D+00 WtEn= 0.00D+00
 Coeff-Com:  0.122D-04-0.180D-04 0.382D-04 0.577D-04 0.217D-03-0.763D-03
 Coeff-Com: -0.147D-02 0.342D-02 0.142D-02-0.870D-02-0.979D-01 0.917D-01
 Coeff-Com:  0.101D+01
 Coeff:      0.122D-04-0.180D-04 0.382D-04 0.577D-04 0.217D-03-0.763D-03
 Coeff:     -0.147D-02 0.342D-02 0.142D-02-0.870D-02-0.979D-01 0.917D-01
 Coeff:      0.101D+01
 Gap=     0.270 Goal=   None    Shift=    0.000
 Gap=     0.132 Goal=   None    Shift=    0.000
 RMSDP=2.39D-06 MaxDP=1.20D-04 DE=-9.28D-08 OVMax= 5.99D-04

 Cycle  14  Pass 1  IDiag  1:
 E= -3349.78897359298     Delta-E=       -0.000000125213 Rises=F Damp=F
 DIIS: error= 1.18D-05 at cycle  14 NSaved=  14.
 NSaved=14 IEnMin=14 EnMin= -3349.78897359298     IErMin=14 ErrMin= 1.18D-05
 ErrMax= 1.18D-05  0.00D+00 EMaxC= 1.00D-01 BMatC= 3.11D-08 BMatP= 3.10D-08
 IDIUse=1 WtCom= 1.00D+00 WtEn= 0.00D+00
 Coeff-Com:  0.247D-05-0.536D-05 0.406D-04 0.617D-04 0.397D-03-0.823D-03
 Coeff-Com: -0.156D-02 0.295D-02 0.213D-02-0.309D-02-0.836D-01-0.242D-01
 Coeff-Com:  0.705D+00 0.402D+00
 Coeff:      0.247D-05-0.536D-05 0.406D-04 0.617D-04 0.397D-03-0.823D-03
 Coeff:     -0.156D-02 0.295D-02 0.213D-02-0.309D-02-0.836D-01-0.242D-01
 Coeff:      0.705D+00 0.402D+00
 Gap=     0.270 Goal=   None    Shift=    0.000
 Gap=     0.132 Goal=   None    Shift=    0.000
 RMSDP=1.07D-06 MaxDP=5.38D-05 DE=-1.25D-07 OVMax= 2.65D-04

 Cycle  15  Pass 1  IDiag  1:
 E= -3349.78897364985     Delta-E=       -0.000000056871 Rises=F Damp=F
 DIIS: error= 1.18D-05 at cycle  15 NSaved=  15.
 NSaved=15 IEnMin=15 EnMin= -3349.78897364985     IErMin=14 ErrMin= 1.18D-05
 ErrMax= 1.18D-05  0.00D+00 EMaxC= 1.00D-01 BMatC= 3.11D-08 BMatP= 3.10D-08
 IDIUse=1 WtCom= 1.00D+00 WtEn= 0.00D+00
 Coeff-Com: -0.156D-05-0.251D-05 0.107D-03 0.155D-03 0.113D-02-0.226D-02
 Coeff-Com: -0.419D-02 0.695D-02 0.682D-02 0.428D-02-0.207D+00-0.126D+00
 Coeff-Com:  0.120D+01 0.260D+01-0.247D+01
 Coeff:     -0.156D-05-0.251D-05 0.107D-03 0.155D-03 0.113D-02-0.226D-02
 Coeff:     -0.419D-02 0.695D-02 0.682D-02 0.428D-02-0.207D+00-0.126D+00
 Coeff:      0.120D+01 0.260D+01-0.247D+01
 Gap=     0.270 Goal=   None    Shift=    0.000
 Gap=     0.132 Goal=   None    Shift=    0.000
 RMSDP=2.74D-06 MaxDP=1.37D-04 DE=-5.69D-08 OVMax= 6.75D-04

 Cycle  16  Pass 1  IDiag  1:
 E= -3349.78897350423     Delta-E=        0.000000145626 Rises=F Damp=F
 DIIS: error= 1.17D-05 at cycle  16 NSaved=  16.
 NSaved=16 IEnMin=15 EnMin= -3349.78897364985     IErMin=16 ErrMin= 1.17D-05
 ErrMax= 1.17D-05  0.00D+00 EMaxC= 1.00D-01 BMatC= 3.04D-08 BMatP= 3.10D-08
 IDIUse=1 WtCom= 1.00D+00 WtEn= 0.00D+00
 Large coefficients: NSaved= 16 BigCof=   15.67 CofMax=   10.00 Det=-2.71D-11
 Inversion failed.  Reducing to 15 matrices.
 Large coefficients: NSaved= 15 BigCof=   14.17 CofMax=   10.00 Det=-1.33D-11
 Inversion failed.  Reducing to 14 matrices.
 Large coefficients: NSaved= 14 BigCof=   14.15 CofMax=   10.00 Det=-1.33D-11
 Inversion failed.  Reducing to 13 matrices.
 Large coefficients: NSaved= 13 BigCof=   13.02 CofMax=   10.00 Det=-1.48D-11
 Inversion failed.  Reducing to 12 matrices.
 Large coefficients: NSaved= 12 BigCof=   12.91 CofMax=   10.00 Det=-1.49D-11
 Inversion failed.  Reducing to 11 matrices.
 Large coefficients: NSaved= 11 BigCof=   12.75 CofMax=   10.00 Det=-1.51D-11
 Inversion failed.  Reducing to 10 matrices.
 Large coefficients: NSaved= 10 BigCof=   12.40 CofMax=   10.00 Det=-1.52D-11
 Inversion failed.  Reducing to  9 matrices.
 Large coefficients: NSaved=  9 BigCof=   11.18 CofMax=   10.00 Det=-1.62D-11
 Inversion failed.  Reducing to  8 matrices.
 Coeff-Com:  0.234D-02 0.211D-02-0.372D-02-0.504D+00-0.621D+00 0.401D+01
 Coeff-Com: -0.926D+01 0.737D+01
 Coeff:      0.234D-02 0.211D-02-0.372D-02-0.504D+00-0.621D+00 0.401D+01
 Coeff:     -0.926D+01 0.737D+01
 Gap=     0.270 Goal=   None    Shift=    0.000
 Gap=     0.132 Goal=   None    Shift=    0.000
 RMSDP=1.51D-05 MaxDP=7.50D-04 DE= 1.46D-07 OVMax= 3.68D-03

 Cycle  17  Pass 1  IDiag  1:
 E= -3349.78897274117     Delta-E=        0.000000763056 Rises=F Damp=F
 DIIS: error= 1.09D-05 at cycle  17 NSaved=   9.
 NSaved= 9 IEnMin= 7 EnMin= -3349.78897364985     IErMin= 9 ErrMin= 1.09D-05
 ErrMax= 1.09D-05  0.00D+00 EMaxC= 1.00D-01 BMatC= 2.71D-08 BMatP= 3.04D-08
 IDIUse=1 WtCom= 1.00D+00 WtEn= 0.00D+00
 Coeff-Com:  0.183D-01 0.584D-01-0.125D+00-0.968D+00-0.273D+01-0.456D+01
 Coeff-Com: -0.292D+01 0.819D+01 0.404D+01
 Coeff:      0.183D-01 0.584D-01-0.125D+00-0.968D+00-0.273D+01-0.456D+01
 Coeff:     -0.292D+01 0.819D+01 0.404D+01
 Gap=     0.270 Goal=   None    Shift=    0.000
 Gap=     0.132 Goal=   None    Shift=    0.000
 RMSDP=5.60D-05 MaxDP=2.78D-03 DE= 7.63D-07 OVMax= 1.36D-02

 Cycle  18  Pass 1  IDiag  1:
 E= -3349.78897052409     Delta-E=        0.000002217077 Rises=F Damp=F
 DIIS: error= 7.08D-06 at cycle  18 NSaved=  10.
 NSaved=10 IEnMin= 7 EnMin= -3349.78897364985     IErMin=10 ErrMin= 7.08D-06
 ErrMax= 7.08D-06  0.00D+00 EMaxC= 1.00D-01 BMatC= 1.81D-08 BMatP= 2.71D-08
 IDIUse=1 WtCom= 1.00D+00 WtEn= 0.00D+00
 Coeff-Com:  0.489D-02 0.259D-01-0.299D+00-0.149D+00-0.276D+00-0.584D+01
 Coeff-Com:  0.419D+01-0.154D+00 0.240D+01 0.110D+01
 Coeff:      0.489D-02 0.259D-01-0.299D+00-0.149D+00-0.276D+00-0.584D+01
 Coeff:      0.419D+01-0.154D+00 0.240D+01 0.110D+01
 Gap=     0.270 Goal=   None    Shift=    0.000
 Gap=     0.132 Goal=   None    Shift=    0.000
 RMSDP=3.91D-05 MaxDP=1.95D-03 DE= 2.22D-06 OVMax= 9.44D-03

 Cycle  19  Pass 1  IDiag  1:
 E= -3349.78896954981     Delta-E=        0.000000974282 Rises=F Damp=F
 DIIS: error= 4.33D-06 at cycle  19 NSaved=  11.
 NSaved=11 IEnMin= 7 EnMin= -3349.78897364985     IErMin=11 ErrMin= 4.33D-06
 ErrMax= 4.33D-06  0.00D+00 EMaxC= 1.00D-01 BMatC= 1.13D-08 BMatP= 1.81D-08
 IDIUse=1 WtCom= 1.00D+00 WtEn= 0.00D+00
 Coeff-Com: -0.462D-03 0.645D-02-0.127D+00 0.117D+00 0.835D-01-0.438D+01
 Coeff-Com:  0.410D+01-0.122D+01 0.130D+01 0.471D+00 0.647D+00
 Coeff:     -0.462D-03 0.645D-02-0.127D+00 0.117D+00 0.835D-01-0.438D+01
 Coeff:      0.410D+01-0.122D+01 0.130D+01 0.471D+00 0.647D+00
 Gap=     0.270 Goal=   None    Shift=    0.000
 Gap=     0.132 Goal=   None    Shift=    0.000
 RMSDP=9.40D-06 MaxDP=4.72D-04 DE= 9.74D-07 OVMax= 2.27D-03

 Cycle  20  Pass 1  IDiag  1:
 E= -3349.78896938764     Delta-E=        0.000000162177 Rises=F Damp=F
 DIIS: error= 3.65D-06 at cycle  20 NSaved=  12.
 NSaved=12 IEnMin= 7 EnMin= -3349.78897364985     IErMin=12 ErrMin= 3.65D-06
 ErrMax= 3.65D-06  0.00D+00 EMaxC= 1.00D-01 BMatC= 7.52D-09 BMatP= 1.13D-08
 IDIUse=1 WtCom= 1.00D+00 WtEn= 0.00D+00
 Coeff-Com:  0.147D-01 0.534D-01-0.185D+00-0.198D+00 0.124D+00 0.399D+00
 Coeff-Com: -0.204D+01 0.154D+01 0.611D+00-0.123D+01-0.104D+01 0.295D+01
 Coeff:      0.147D-01 0.534D-01-0.185D+00-0.198D+00 0.124D+00 0.399D+00
 Coeff:     -0.204D+01 0.154D+01 0.611D+00-0.123D+01-0.104D+01 0.295D+01
 Gap=     0.270 Goal=   None    Shift=    0.000
 Gap=     0.132 Goal=   None    Shift=    0.000
 RMSDP=4.47D-05 MaxDP=2.25D-03 DE= 1.62D-07 OVMax= 1.08D-02

 Cycle  21  Pass 1  IDiag  1:
 E= -3349.78896899099     Delta-E=        0.000000396643 Rises=F Damp=F
 DIIS: error= 1.87D-06 at cycle  21 NSaved=  13.
 NSaved=13 IEnMin= 7 EnMin= -3349.78897364985     IErMin=13 ErrMin= 1.87D-06
 ErrMax= 1.87D-06  0.00D+00 EMaxC= 1.00D-01 BMatC= 2.81D-09 BMatP= 7.52D-09
 IDIUse=1 WtCom= 1.00D+00 WtEn= 0.00D+00
 Coeff-Com:  0.988D-02 0.148D-01-0.177D+00-0.295D+00 0.590D-01 0.243D+01
 Coeff-Com: -0.427D+01 0.237D+01 0.220D+00-0.527D+00-0.113D+01 0.120D+01
 Coeff-Com:  0.109D+01
 Coeff:      0.988D-02 0.148D-01-0.177D+00-0.295D+00 0.590D-01 0.243D+01
 Coeff:     -0.427D+01 0.237D+01 0.220D+00-0.527D+00-0.113D+01 0.120D+01
 Coeff:      0.109D+01
 Gap=     0.270 Goal=   None    Shift=    0.000
 Gap=     0.132 Goal=   None    Shift=    0.000
 RMSDP=6.08D-06 MaxDP=3.22D-04 DE= 3.97D-07 OVMax= 1.47D-03

 Cycle  22  Pass 1  IDiag  1:
 E= -3349.78896898606     Delta-E=        0.000000004933 Rises=F Damp=F
 DIIS: error= 8.12D-07 at cycle  22 NSaved=  14.
 NSaved=14 IEnMin= 7 EnMin= -3349.78897364985     IErMin=14 ErrMin= 8.12D-07
 ErrMax= 8.12D-07  0.00D+00 EMaxC= 1.00D-01 BMatC= 6.63D-10 BMatP= 2.81D-09
 IDIUse=1 WtCom= 1.00D+00 WtEn= 0.00D+00
 Coeff-Com: -0.243D-03 0.534D-02-0.249D-01-0.308D-01 0.541D-01 0.434D+00
 Coeff-Com: -0.584D+00 0.222D+00-0.694D-01-0.608D-01 0.543D-01 0.527D-02
 Coeff-Com:  0.203D+00 0.793D+00
 Coeff:     -0.243D-03 0.534D-02-0.249D-01-0.308D-01 0.541D-01 0.434D+00
 Coeff:     -0.584D+00 0.222D+00-0.694D-01-0.608D-01 0.543D-01 0.527D-02
 Coeff:      0.203D+00 0.793D+00
 Gap=     0.270 Goal=   None    Shift=    0.000
 Gap=     0.132 Goal=   None    Shift=    0.000
 RMSDP=1.18D-07 MaxDP=1.06D-05 DE= 4.93D-09 OVMax= 2.36D-05

 Cycle  23  Pass 1  IDiag  1:
 E= -3349.78896898623     Delta-E=       -0.000000000172 Rises=F Damp=F
 DIIS: error= 1.96D-07 at cycle  23 NSaved=  15.
 NSaved=15 IEnMin= 7 EnMin= -3349.78897364985     IErMin=15 ErrMin= 1.96D-07
 ErrMax= 1.96D-07  0.00D+00 EMaxC= 1.00D-01 BMatC= 3.68D-11 BMatP= 6.63D-10
 IDIUse=1 WtCom= 1.00D+00 WtEn= 0.00D+00
 Coeff-Com: -0.509D-03-0.906D-03 0.839D-02 0.730D-02-0.321D-01-0.206D+00
 Coeff-Com:  0.268D+00-0.749D-01 0.223D-01 0.195D-01 0.469D-02-0.150D-01
 Coeff-Com: -0.224D-01 0.107D+00 0.915D+00
 Coeff:     -0.509D-03-0.906D-03 0.839D-02 0.730D-02-0.321D-01-0.206D+00
 Coeff:      0.268D+00-0.749D-01 0.223D-01 0.195D-01 0.469D-02-0.150D-01
 Coeff:     -0.224D-01 0.107D+00 0.915D+00
 Gap=     0.270 Goal=   None    Shift=    0.000
 Gap=     0.132 Goal=   None    Shift=    0.000
 RMSDP=1.62D-07 MaxDP=8.13D-06 DE=-1.72D-10 OVMax= 3.78D-05

 Cycle  24  Pass 1  IDiag  1:
 E= -3349.78896898622     Delta-E=        0.000000000007 Rises=F Damp=F
 DIIS: error= 4.57D-08 at cycle  24 NSaved=  16.
 NSaved=16 IEnMin= 7 EnMin= -3349.78897364985     IErMin=16 ErrMin= 4.57D-08
 ErrMax= 4.57D-08  0.00D+00 EMaxC= 1.00D-01 BMatC= 2.05D-12 BMatP= 3.68D-11
 IDIUse=1 WtCom= 1.00D+00 WtEn= 0.00D+00
 Coeff-Com: -0.297D-03-0.107D-02 0.514D-02 0.887D-02-0.936D-02-0.125D+00
 Coeff-Com:  0.177D+00-0.727D-01 0.114D-01 0.179D-01 0.343D-02-0.171D-01
 Coeff-Com: -0.358D-01-0.854D-02 0.314D+00 0.732D+00
 Coeff:     -0.297D-03-0.107D-02 0.514D-02 0.887D-02-0.936D-02-0.125D+00
 Coeff:      0.177D+00-0.727D-01 0.114D-01 0.179D-01 0.343D-02-0.171D-01
 Coeff:     -0.358D-01-0.854D-02 0.314D+00 0.732D+00
 Gap=     0.270 Goal=   None    Shift=    0.000
 Gap=     0.132 Goal=   None    Shift=    0.000
 RMSDP=3.02D-08 MaxDP=1.55D-06 DE= 7.28D-12 OVMax= 7.17D-06

 Cycle  25  Pass 1  IDiag  1:
 E= -3349.78896898628     Delta-E=       -0.000000000059 Rises=F Damp=F
 DIIS: error= 1.08D-08 at cycle  25 NSaved=  17.
 NSaved=17 IEnMin= 7 EnMin= -3349.78897364985     IErMin=17 ErrMin= 1.08D-08
 ErrMax= 1.08D-08  0.00D+00 EMaxC= 1.00D-01 BMatC= 1.28D-13 BMatP= 2.05D-12
 IDIUse=1 WtCom= 1.00D+00 WtEn= 0.00D+00
 Coeff-Com:  0.584D-04 0.134D-03-0.599D-03 0.825D-03 0.351D-02 0.402D-02
 Coeff-Com: -0.669D-02-0.259D-02 0.119D-02 0.678D-03 0.123D-03 0.104D-04
 Coeff-Com: -0.546D-03-0.276D-02-0.840D-01 0.776D-01 0.101D+01
 Coeff:      0.584D-04 0.134D-03-0.599D-03 0.825D-03 0.351D-02 0.402D-02
 Coeff:     -0.669D-02-0.259D-02 0.119D-02 0.678D-03 0.123D-03 0.104D-04
 Coeff:     -0.546D-03-0.276D-02-0.840D-01 0.776D-01 0.101D+01
 Gap=     0.270 Goal=   None    Shift=    0.000
 Gap=     0.132 Goal=   None    Shift=    0.000
 RMSDP=3.87D-09 MaxDP=2.82D-07 DE=-5.91D-11 OVMax= 5.49D-07

 Error on total polarization charges =  0.02261
 SCF Done:  E(UB3LYP) =  -3349.78896899     A.U. after   25 cycles
            NFock= 25  Conv=0.39D-08     -V/T= 2.0013
 <Sx>= 0.0000 <Sy>= 0.0000 <Sz>= 1.0000 <S**2>= 2.0051 S= 1.0017
 <L.S>= 0.000000000000E+00
 KE= 3.345588666068D+03 PE=-9.485626798663D+03 EE= 2.056855594782D+03
 Annihilation of the first spin contaminant:
 S**2 before annihilation     2.0051,   after     2.0000
 Leave Link  502 at Thu May  5 14:00:07 2016, MaxMem=  3221225472 cpu:        94.2
 (Enter /usr/local/Gaussian/gaussian-09-D01-sse4_2/g09/linda-exe/l508.exel)
 QCSCF skips out because SCF is already converged.
 Leave Link  508 at Thu May  5 14:00:08 2016, MaxMem=  3221225472 cpu:         0.0
 (Enter /usr/local/Gaussian/gaussian-09-D01-sse4_2/g09/l601.exe)
 Copying SCF densities to generalized density rwf, IOpCl= 1 IROHF=0.

 **********************************************************************

            Population analysis using the SCF density.

 **********************************************************************

 Alpha  occ. eigenvalues -- -299.85160-101.43588-101.43588-101.43475-101.43474
 Alpha  occ. eigenvalues --  -35.80550 -31.23257 -31.22431 -31.21984  -9.37010
 Alpha  occ. eigenvalues --   -9.37009  -9.36923  -9.36921  -7.12820  -7.12820
 Alpha  occ. eigenvalues --   -7.12629  -7.12628  -7.12505  -7.12505  -7.12466
 Alpha  occ. eigenvalues --   -7.12466  -7.12452  -7.12451  -7.12435  -7.12433
 Alpha  occ. eigenvalues --   -4.07790  -2.68119  -2.66553  -2.65698  -0.75062
 Alpha  occ. eigenvalues --   -0.73624  -0.73606  -0.73568  -0.38820  -0.38752
 Alpha  occ. eigenvalues --   -0.36024  -0.35423  -0.35264  -0.34902  -0.30191
 Alpha  occ. eigenvalues --   -0.30040  -0.29954  -0.25429  -0.25411  -0.25391
 Alpha  occ. eigenvalues --   -0.25092  -0.25053  -0.23159  -0.23002  -0.21649
 Alpha virt. eigenvalues --    0.05336   0.18266   0.19043   0.19253   0.19461
 Alpha virt. eigenvalues --    0.25269   0.25344   0.25347   0.27953   0.28006
 Alpha virt. eigenvalues --    0.34380   0.34387   0.34413   0.35187   0.35875
 Alpha virt. eigenvalues --    0.35906   0.37699   0.37792   0.37832   0.40521
 Alpha virt. eigenvalues --    0.40558   0.40580   0.48535   0.48636   0.48655
 Alpha virt. eigenvalues --    0.49297   0.49367   0.49523   0.49865   0.49915
 Alpha virt. eigenvalues --    0.57342   0.57365   0.57385   0.64670   0.64802
 Alpha virt. eigenvalues --    0.64816   0.70142   0.71569   0.71573   0.71611
 Alpha virt. eigenvalues --    0.84266   0.84285   0.98011   0.98078   0.98427
 Alpha virt. eigenvalues --    1.07394   1.12648   1.12820   1.38067   1.38101
 Alpha virt. eigenvalues --    1.38876   1.76519   1.76807   1.76834   1.78708
 Alpha virt. eigenvalues --    1.78808   1.78821   1.80037   1.80084   1.85352
 Alpha virt. eigenvalues --    1.85400   1.85489   1.89274   1.89369   1.89415
 Alpha virt. eigenvalues --    1.95558   1.95560   1.95676   1.95855   2.01300
 Alpha virt. eigenvalues --    2.01520   2.01543   2.05316   2.05349   2.11263
 Alpha virt. eigenvalues --    2.11334   2.11344   2.13349   2.13350   2.13374
 Alpha virt. eigenvalues --    2.14266   2.14306   2.14350   2.14405   2.14472
 Alpha virt. eigenvalues --    2.14501   2.14578   2.14610   2.15924   2.15991
 Alpha virt. eigenvalues --    2.16017   2.19309   2.19367   2.23505   2.25321
 Alpha virt. eigenvalues --    2.25326   2.25434   2.25571   2.25604   2.30746
 Alpha virt. eigenvalues --    2.30767   2.30946   2.31609   2.31628   2.31654
 Alpha virt. eigenvalues --    2.47388   2.56550   2.56606   2.60347   2.60693
 Alpha virt. eigenvalues --    2.60770   2.86714   2.87003   2.87103   3.41034
 Alpha virt. eigenvalues --    4.31879   4.32135   4.34125   4.34263   4.36940
 Alpha virt. eigenvalues --    5.48769   5.48927   5.50091   5.54435   5.56014
 Alpha virt. eigenvalues --    5.57507   5.59756  10.73763  10.73777  10.73833
 Alpha virt. eigenvalues --   10.76248  10.76262  10.76278  10.76369  10.76407
 Alpha virt. eigenvalues --   10.86331  10.96311  10.96436  10.96525  24.69261
 Alpha virt. eigenvalues --   24.69294  24.69326  24.86720
  Beta  occ. eigenvalues -- -299.85068-101.43501-101.43501-101.43404-101.43403
  Beta  occ. eigenvalues --  -35.76404 -31.19457 -31.19081 -31.18872  -9.36930
  Beta  occ. eigenvalues --   -9.36930  -9.36860  -9.36858  -7.12598  -7.12597
  Beta  occ. eigenvalues --   -7.12514  -7.12513  -7.12426  -7.12426  -7.12417
  Beta  occ. eigenvalues --   -7.12417  -7.12357  -7.12357  -7.12355  -7.12355
  Beta  occ. eigenvalues --   -3.98865  -2.57619  -2.57299  -2.57134  -0.74615
  Beta  occ. eigenvalues --   -0.73151  -0.73078  -0.73041  -0.34653  -0.33710
  Beta  occ. eigenvalues --   -0.32876  -0.32870  -0.30558  -0.30302  -0.29480
  Beta  occ. eigenvalues --   -0.28634  -0.28588  -0.25059  -0.25024  -0.24992
  Beta  occ. eigenvalues --   -0.23540  -0.22787  -0.19834
  Beta virt. eigenvalues --   -0.06631  -0.06489   0.05441   0.19401   0.19941
  Beta virt. eigenvalues --    0.20322   0.20380   0.25566   0.25764   0.25772
  Beta virt. eigenvalues --    0.28289   0.28538   0.34534   0.34539   0.34548
  Beta virt. eigenvalues --    0.35518   0.36023   0.36033   0.38053   0.38228
  Beta virt. eigenvalues --    0.38234   0.40735   0.40760   0.40777   0.48826
  Beta virt. eigenvalues --    0.48845   0.48857   0.49903   0.50111   0.50150
  Beta virt. eigenvalues --    0.50255   0.50284   0.57572   0.57594   0.57623
  Beta virt. eigenvalues --    0.65085   0.65137   0.65147   0.70601   0.72012
  Beta virt. eigenvalues --    0.72031   0.72042   0.84491   0.84504   0.98949
  Beta virt. eigenvalues --    0.99467   0.99636   1.07953   1.13471   1.14113
  Beta virt. eigenvalues --    1.39709   1.40832   1.41128   1.77530   1.77542
  Beta virt. eigenvalues --    1.77574   1.78949   1.78958   1.78962   1.80227
  Beta virt. eigenvalues --    1.80239   1.85626   1.85646   1.85670   1.89816
  Beta virt. eigenvalues --    1.89816   1.89819   1.95943   1.95954   1.95957
  Beta virt. eigenvalues --    1.96150   2.02459   2.02464   2.02506   2.05622
  Beta virt. eigenvalues --    2.05626   2.11593   2.11608   2.11615   2.13642
  Beta virt. eigenvalues --    2.13659   2.13688   2.14604   2.14618   2.14631
  Beta virt. eigenvalues --    2.14642   2.14696   2.14703   2.14709   2.14770
  Beta virt. eigenvalues --    2.16264   2.16292   2.16295   2.19649   2.19650
  Beta virt. eigenvalues --    2.23878   2.25576   2.25595   2.25601   2.25780
  Beta virt. eigenvalues --    2.25795   2.31474   2.31577   2.31619   2.31816
  Beta virt. eigenvalues --    2.31820   2.31835   2.47971   2.56956   2.57097
  Beta virt. eigenvalues --    2.61836   2.61862   2.61968   2.87991   2.88054
  Beta virt. eigenvalues --    2.88239   3.45427   4.34222   4.35182   4.39543
  Beta virt. eigenvalues --    4.42614   4.43085   5.55861   5.56226   5.57653
  Beta virt. eigenvalues --    5.59687   5.61600   5.62822   5.69459  10.73919
  Beta virt. eigenvalues --   10.73920  10.73930  10.76380  10.76392  10.76404
  Beta virt. eigenvalues --   10.76515  10.76518  10.86567  10.96612  10.96642
  Beta virt. eigenvalues --   10.96655  24.69395  24.69414  24.69432  24.86849
          Condensed to atoms (all electrons):
               1          2          3          4          5
     1  Ni  26.695420   0.158171   0.159091   0.159000   0.158171
     2  Cl   0.158171  17.574585  -0.027300  -0.027250  -0.022415
     3  Cl   0.159091  -0.027300  17.615873  -0.041054  -0.027300
     4  Cl   0.159000  -0.027250  -0.041054  17.615809  -0.027250
     5  Cl   0.158171  -0.022415  -0.027300  -0.027250  17.574585
          Atomic-Atomic Spin Densities.
               1          2          3          4          5
     1  Ni   1.725938  -0.032703  -0.029247  -0.029258  -0.032703
     2  Cl  -0.032703   0.178778  -0.008941  -0.008979  -0.011736
     3  Cl  -0.029247  -0.008941   0.126462   0.003145  -0.008941
     4  Cl  -0.029258  -0.008979   0.003145   0.126726  -0.008979
     5  Cl  -0.032703  -0.011736  -0.008941  -0.008979   0.178778
 Mulliken charges and spin densities:
               1          2
     1  Ni   0.670147   1.602026
     2  Cl  -0.655791   0.116420
     3  Cl  -0.679310   0.082478
     4  Cl  -0.679255   0.082655
     5  Cl  -0.655791   0.116420
 Sum of Mulliken charges =  -2.00000   2.00000
 Mulliken charges and spin densities with hydrogens summed into heavy atoms:
               1          2
     1  Ni   0.670147   1.602026
     2  Cl  -0.655791   0.116420
     3  Cl  -0.679310   0.082478
     4  Cl  -0.679255   0.082655
     5  Cl  -0.655791   0.116420
 Electronic spatial extent (au):  <R**2>=           4025.1223
 Charge=             -2.0000 electrons
 Dipole moment (field-independent basis, Debye):
    X=             10.7000    Y=             24.3814    Z=              0.9459  Tot=             26.6428
 Quadrupole moment (field-independent basis, Debye-Ang):
   XX=           -101.7497   YY=           -151.4193   ZZ=            -89.1438
   XY=            -26.7408   XZ=             -1.0536   YZ=             -2.4007
 Traceless Quadrupole moment (field-independent basis, Debye-Ang):
   XX=             12.3546   YY=            -37.3150   ZZ=             24.9605
   XY=            -26.7408   XZ=             -1.0536   YZ=             -2.4007
 Octapole moment (field-independent basis, Debye-Ang**2):
  XXX=            341.1839  YYY=            859.4813  ZZZ=             26.3137  XYY=            153.9330
  XXY=            258.0243  XXZ=             10.0185  XZZ=             87.5396  YZZ=            209.6233
  YYZ=             14.9091  XYZ=              2.6330
 Hexadecapole moment (field-independent basis, Debye-Ang**3):
 XXXX=          -1491.3652 YYYY=          -4742.1756 ZZZZ=           -672.0073 XXXY=           -864.6626
 XXXZ=            -33.5939 YYYX=           -839.4198 YYYZ=            -84.6268 ZZZX=            -25.8377
 ZZZY=            -61.8737 XXYY=           -953.8456 XXZZ=           -300.7389 YYZZ=           -713.2784
 XXYZ=            -25.4058 YYXZ=            -15.1566 ZZXY=           -213.7259
 N-N= 7.333935688269D+02 E-N=-9.485626803223D+03  KE= 3.345588666068D+03
                          Isotropic Fermi Contact Couplings
        Atom                 a.u.       MegaHertz       Gauss      10(-4) cm-1
     1  Ni(61)             0.32170     -64.36090     -22.96557     -21.46848
     2  Cl(35)             0.07175      15.72984       5.61280       5.24691
     3  Cl(35)             0.03355       7.35530       2.62455       2.45346
     4  Cl(35)             0.03374       7.39621       2.63915       2.46711
     5  Cl(35)             0.07175      15.72984       5.61280       5.24691
 --------------------------------------------------------
       Center         ----  Spin Dipole Couplings  ----
                      3XX-RR        3YY-RR        3ZZ-RR
 --------------------------------------------------------
     1   Atom       -0.508894     -0.703492      1.212386
     2   Atom       -0.269841     -0.166041      0.435882
     3   Atom       -0.173560      0.199316     -0.025756
     4   Atom       -0.006856      0.033790     -0.026934
     5   Atom       -0.269841     -0.166041      0.435882
 --------------------------------------------------------
                        XY            XZ            YZ
 --------------------------------------------------------
     1   Atom       -0.264665      0.000000      0.000000
     2   Atom        0.148717      0.192611      0.271255
     3   Atom        0.266693      0.000000      0.000000
     4   Atom        0.325858      0.000000      0.000000
     5   Atom        0.148717     -0.192611     -0.271255
 --------------------------------------------------------


 ---------------------------------------------------------------------------------
              Anisotropic Spin Dipole Couplings in Principal Axis System
 ---------------------------------------------------------------------------------

       Atom             a.u.   MegaHertz   Gauss  10(-4) cm-1        Axes

              Baa    -0.8882    42.421    15.137    14.150  0.5723  0.8201  0.0000
     1 Ni(61) Bbb    -0.3242    15.485     5.525     5.165  0.8201 -0.5723  0.0000
              Bcc     1.2124   -57.906   -20.662   -19.315  0.0000  0.0000  1.0000
 
              Baa    -0.3755   -19.650    -7.012    -6.555  0.8153 -0.5790  0.0000
     2 Cl(35) Bbb    -0.2273   -11.897    -4.245    -3.968  0.5176  0.7287 -0.4484
              Bcc     0.6028    31.547    11.257    10.523  0.2596  0.3656  0.8938
 
              Baa    -0.3125   -16.357    -5.836    -5.456  0.8868 -0.4621  0.0000
     3 Cl(35) Bbb    -0.0258    -1.348    -0.481    -0.450  0.0000  0.0000  1.0000
              Bcc     0.3383    17.705     6.317     5.906  0.4621  0.8868  0.0000
 
              Baa    -0.3130   -16.383    -5.846    -5.465  0.7288 -0.6847  0.0000
     4 Cl(35) Bbb    -0.0269    -1.410    -0.503    -0.470  0.0000  0.0000  1.0000
              Bcc     0.3400    17.793     6.349     5.935  0.6847  0.7288  0.0000
 
              Baa    -0.3755   -19.650    -7.012    -6.555  0.8153 -0.5790  0.0000
     5 Cl(35) Bbb    -0.2273   -11.897    -4.245    -3.968  0.5176  0.7287  0.4484
              Bcc     0.6028    31.547    11.257    10.523 -0.2596 -0.3656  0.8938
 

 ---------------------------------------------------------------------------------

 No NMR shielding tensors so no spin-rotation constants.
 Leave Link  601 at Thu May  5 14:00:09 2016, MaxMem=  3221225472 cpu:         1.1
 (Enter /usr/local/Gaussian/gaussian-09-D01-sse4_2/g09/linda-exe/l701.exel)
 Compute integral first derivatives.
 ... and contract with generalized density number  0.
   1 Symmetry operations used in ECPInt.
 ECPInt:  NShTT=    2278 NPrTT=   10643 LenC2=    2111 LenP2D=    6983.
 LDataN:  DoStor=T MaxTD1= 7 Len=  274
 D1PCM: C-PCM CHGder 1st derivatives, ID1Alg=3 FixD1E=F DoIter=F DoCFld=F I1PDM=0.
 GePol: Maximum number of non-zero 1st derivatives   =     268
 Leave Link  701 at Thu May  5 14:00:15 2016, MaxMem=  3221225472 cpu:        18.9
 (Enter /usr/local/Gaussian/gaussian-09-D01-sse4_2/g09/l702.exe)
 L702 exits ... SP integral derivatives will be done elsewhere.
 Leave Link  702 at Thu May  5 14:00:15 2016, MaxMem=  3221225472 cpu:         0.1
 (Enter /usr/local/Gaussian/gaussian-09-D01-sse4_2/g09/linda-exe/l703.exel)
 Compute integral first derivatives, UseDBF=F ICtDFT=           0.
 Integral derivatives from FoFJK, PRISM(SPDF).
 Calling FoFJK, ICntrl=      2127 FMM=F ISym2X=0 I1Cent= 0 IOpClX= 1 NMat=1 NMatS=1 NMatT=0.
 FoFJK:  IHMeth= 1 ICntrl=    2127 DoSepK=F KAlg= 0 I1Cent=   0 FoldK=F
 IRaf=         0 NMat=   1 IRICut=       1 DoRegI=T DoRafI=F ISym2E= 0.
 FoFCou: FMM=F IPFlag=           0 FMFlag=      100000 FMFlg1=         800
         NFxFlg=           0 DoJE=F BraDBF=F KetDBF=F FulRan=T
         wScrn=  0.000000 ICntrl=    2127 IOpCl=  1 I1Cent=           0 NGrid=           0
         NMat0=    1 NMatS0=      1 NMatT0=    0 NMatD0=    1 NMtDS0=    0 NMtDT0=    0
 Symmetry not used in FoFCou.
 Leave Link  703 at Thu May  5 14:00:20 2016, MaxMem=  3221225472 cpu:        16.6
 (Enter /usr/local/Gaussian/gaussian-09-D01-sse4_2/g09/l716.exe)
 Dipole        = 4.20972271D+00 9.59237571D+00 3.72134923D-01
 -------------------------------------------------------------------
 Center     Atomic                   Forces (Hartrees/Bohr)
 Number     Number              X              Y              Z
 -------------------------------------------------------------------
      1       28          -0.001929947   -0.002765547    0.000000000
      2       17           0.013307767    0.018826030    0.030011004
      3       17           0.020969942   -0.041152739    0.000000000
      4       17          -0.045655529    0.006266226    0.000000000
      5       17           0.013307767    0.018826030   -0.030011004
 -------------------------------------------------------------------
 Cartesian Forces:  Max     0.045655529 RMS     0.021806276
 Leave Link  716 at Thu May  5 14:00:20 2016, MaxMem=  3221225472 cpu:         0.1
 (Enter /usr/local/Gaussian/gaussian-09-D01-sse4_2/g09/l103.exe)

 GradGradGradGradGradGradGradGradGradGradGradGradGradGradGradGradGradGrad
 Berny optimization.
 FormGI is forming the generalized inverse of G from B-inverse, IUseBI=4.
 Internal  Forces:  Max     0.045789081 RMS     0.022858124
 Search for a local minimum.
 Step number   1 out of a maximum of  100
 All quantities printed in internal units (Hartrees-Bohrs-Radians)
 RMS Force = .22858D-01 SwitMx=.10000D-02 MixMth= 1
 Mixed Optimization -- RFO/linear search
 Second derivative matrix not updated -- first step.
 The second derivative matrix:
                          R1        R2        R3        R4        A1
           R1           0.15844
           R2           0.00000   0.15844
           R3           0.00000   0.00000   0.15844
           R4           0.00000   0.00000   0.00000   0.15844
           A1           0.00000   0.00000   0.00000   0.00000   0.25000
           A2           0.00000   0.00000   0.00000   0.00000   0.00000
           A3           0.00000   0.00000   0.00000   0.00000   0.00000
           A4           0.00000   0.00000   0.00000   0.00000   0.00000
           A5           0.00000   0.00000   0.00000   0.00000   0.00000
           A6           0.00000   0.00000   0.00000   0.00000   0.00000
           D1           0.00000   0.00000   0.00000   0.00000   0.00000
           D2           0.00000   0.00000   0.00000   0.00000   0.00000
           D3           0.00000   0.00000   0.00000   0.00000   0.00000
           D4           0.00000   0.00000   0.00000   0.00000   0.00000
                          A2        A3        A4        A5        A6
           A2           0.25000
           A3           0.00000   0.25000
           A4           0.00000   0.00000   0.25000
           A5           0.00000   0.00000   0.00000   0.25000
           A6           0.00000   0.00000   0.00000   0.00000   0.25000
           D1           0.00000   0.00000   0.00000   0.00000   0.00000
           D2           0.00000   0.00000   0.00000   0.00000   0.00000
           D3           0.00000   0.00000   0.00000   0.00000   0.00000
           D4           0.00000   0.00000   0.00000   0.00000   0.00000
                          D1        D2        D3        D4
           D1           0.03548
           D2           0.00000   0.03548
           D3           0.00000   0.00000   0.03548
           D4           0.00000   0.00000   0.00000   0.03548
 ITU=  0
     Eigenvalues ---    0.10148   0.11009   0.14989   0.15844   0.15844
     Eigenvalues ---    0.15844   0.15844   0.25000   0.25000
 RFO step:  Lambda=-3.74926747D-02 EMin= 1.01483455D-01
 Linear search not attempted -- first point.
 Maximum step size (   0.300) exceeded in Quadratic search.
    -- Step size scaled by   0.693
 Iteration  1 RMS(Cart)=  0.08374893 RMS(Int)=  0.00076013
 Iteration  2 RMS(Cart)=  0.00093858 RMS(Int)=  0.00010614
 Iteration  3 RMS(Cart)=  0.00000060 RMS(Int)=  0.00010614
 ITry= 1 IFail=0 DXMaxC= 1.79D-01 DCOld= 1.00D+10 DXMaxT= 3.00D-01 DXLimC= 3.00D+00 Rises=F
 Variable       Old X    -DE/DX   Delta X   Delta X   Delta X     New X
                                 (Linear)    (Quad)   (Total)
    R1        4.04401   0.03781   0.00000   0.13368   0.13368   4.17770
    R2        4.04401   0.04579   0.00000   0.16188   0.16188   4.20589
    R3        4.04401   0.04566   0.00000   0.16140   0.16140   4.20542
    R4        4.04401   0.03781   0.00000   0.13368   0.13368   4.17770
    A1        1.91063  -0.00126   0.00000  -0.00465  -0.00489   1.90574
    A2        1.91063   0.00015   0.00000  -0.00305  -0.00326   1.90737
    A3        1.91063  -0.00204   0.00000  -0.01452  -0.01467   1.89597
    A4        1.91063   0.01050   0.00000   0.03977   0.03977   1.95040
    A5        1.91063  -0.00321   0.00000  -0.00839  -0.00844   1.90220
    A6        1.91063  -0.00414   0.00000  -0.00917  -0.00923   1.90141
    D1       -2.09439  -0.00498   0.00000  -0.01680  -0.01688  -2.11127
    D2        2.09439  -0.00476   0.00000  -0.01972  -0.01968   2.07472
    D3       -2.09440   0.00361   0.00000   0.01824   0.01817  -2.07622
    D4        2.09440   0.00837   0.00000   0.03796   0.03785   2.13224
         Item               Value     Threshold  Converged?
 Maximum Force            0.045789     0.000450     NO 
 RMS     Force            0.022858     0.000300     NO 
 Maximum Displacement     0.178873     0.001800     NO 
 RMS     Displacement     0.083900     0.001200     NO 
 Predicted change in Energy=-1.870715D-02
 Lowest energy point so far.  Saving SCF results.
 GradGradGradGradGradGradGradGradGradGradGradGradGradGradGradGradGradGrad

 Leave Link  103 at Thu May  5 14:00:20 2016, MaxMem=  3221225472 cpu:         0.0
 (Enter /usr/local/Gaussian/gaussian-09-D01-sse4_2/g09/l202.exe)
                          Input orientation:                          
 ---------------------------------------------------------------------
 Center     Atomic      Atomic             Coordinates (Angstroms)
 Number     Number       Type             X           Y           Z
 ---------------------------------------------------------------------
      1         28           0       -1.130227   -2.560729   -0.095981
      2         17           0       -0.383467   -1.506701    1.698109
      3         17           0       -0.346570   -4.643859   -0.099851
      4         17           0       -3.355195   -2.516670   -0.101392
      5         17           0       -0.387240   -1.509366   -1.893197
 ---------------------------------------------------------------------
                    Distance matrix (angstroms):
                    1          2          3          4          5
     1  Ni   0.000000
     2  Cl   2.210742   0.000000
     3  Cl   2.225661   3.616046   0.000000
     4  Cl   2.225411   3.617929   3.684666   0.000000
     5  Cl   2.210742   3.591309   3.611481   3.610261   0.000000
 Symmetry turned off by external request.
 Stoichiometry    Cl4Ni(2-,3)
 Framework group  C1[X(Cl4Ni)]
 Deg. of freedom     9
 Full point group                 C1      NOp   1
 Rotational constants (GHZ):      1.1211051      1.0933632      1.0907473
 Leave Link  202 at Thu May  5 14:00:20 2016, MaxMem=  3221225472 cpu:         0.0
 (Enter /usr/local/Gaussian/gaussian-09-D01-sse4_2/g09/l301.exe)
 Standard basis: def2TZVP (5D, 7F)
 Ernie: Thresh=  0.10000D-02 Tol=  0.10000D-05 Strict=F.
   193 basis functions,   378 primitive gaussians,   220 cartesian basis functions
    50 alpha electrons       48 beta electrons
       nuclear repulsion energy       707.5975868496 Hartrees.
 IExCor=  402 DFT=T Ex+Corr=B3LYP ExCW=0 ScaHFX=  0.200000
 ScaDFX=  0.800000  0.720000  1.000000  0.810000 ScalE2=  1.000000  1.000000
 IRadAn=      0 IRanWt=     -1 IRanGd=            0 ICorTp=0 IEmpDi=  4
 NAtoms=    5 NActive=    5 NUniq=    5 SFac= 1.00D+00 NAtFMM=   60 NAOKFM=F Big=F
 Integral buffers will be    131072 words long.
 Raffenetti 2 integral format.
 Two-electron integral symmetry is turned off.
 ------------------------------------------------------------------------------
 Polarizable Continuum Model (PCM)
 =================================
 Model                : C-PCM.
 Atomic radii         : UFF (Universal Force Field).
 Polarization charges : Total charges.
 Charge compensation  : None.
 Solution method      : On-the-fly selection.
 Cavity type          : Scaled VdW (van der Waals Surface) (Alpha=1.100).
 Cavity algorithm     : GePol (No added spheres)
                        Default sphere list used, NSphG=    5.
                        Lebedev-Laikov grids with approx.  5.0 points / Ang**2.
                        Smoothing algorithm: Karplus/York (Gamma=1.0000).
                        Polarization charges: spherical gaussians, with
                                              point-specific exponents (IZeta= 3).
                        Self-potential: point-specific (ISelfS= 7).
                        Self-field    : sphere-specific E.n sum rule (ISelfD= 2).
 1st derivatives      : Analytical E(r).r(x)/FMM algorithm (CHGder, D1EAlg=3).
                        Cavity 1st derivative terms included.
 Solvent              : DiMethylSulfoxide, Eps=  46.826000 Eps(inf)=   2.007889
 ------------------------------------------------------------------------------
 Spheres list:
 ISph  on   Nord     Re0    Alpha      Xe            Ye            Ze
    1  Ni      1    1.4170  1.100     -1.130227     -2.560729     -0.095981
    2  Cl      2    1.9735  1.100     -0.383467     -1.506701      1.698109
    3  Cl      3    1.9735  1.100     -0.346570     -4.643859     -0.099851
    4  Cl      4    1.9735  1.100     -3.355195     -2.516670     -0.101392
    5  Cl      5    1.9735  1.100     -0.387240     -1.509366     -1.893197
 ------------------------------------------------------------------------------
 GePol: Number of generator spheres                  =       5
 GePol: Total number of spheres                      =       5
 GePol: Number of exposed spheres                    =       5 (100.00%)
 GePol: Number of points                             =     968
 GePol: Average weight of points                     =       0.19
 GePol: Minimum weight of points                     =   0.29D-07
 GePol: Maximum weight of points                     =    0.21616
 GePol: Number of points with low weight             =      16
 GePol: Fraction of low-weight points (<1% of avg)   =       1.65%
 GePol: Cavity surface area                          =    180.759 Ang**2
 GePol: Cavity volume                                =    161.356 Ang**3
 Leave Link  301 at Thu May  5 14:00:20 2016, MaxMem=  3221225472 cpu:         0.2
 (Enter /usr/local/Gaussian/gaussian-09-D01-sse4_2/g09/linda-exe/l302.exel)
 NPDir=0 NMtPBC=     1 NCelOv=     1 NCel=       1 NClECP=     1 NCelD=      1
         NCelK=      1 NCelE2=     1 NClLst=     1 CellRange=     0.0.
 One-electron integrals computed using PRISM.
   1 Symmetry operations used in ECPInt.
 ECPInt:  NShTT=    2278 NPrTT=   10643 LenC2=    2111 LenP2D=    6929.
 LDataN:  DoStor=T MaxTD1= 6 Len=  172
 NBasis=   193 RedAO= T EigKep=  1.26D-02  NBF=   193
 NBsUse=   193 1.00D-06 EigRej= -1.00D+00 NBFU=   193
 Precomputing XC quadrature grid using
 IXCGrd= 4 IRadAn=           0 IRanWt=          -1 IRanGd=           0 AccXCQ= 0.00D+00.
 Generated NRdTot=       0 NPtTot=           0 NUsed=           0 NTot=          32
 NSgBfM=   215   215   215   215   215 MxSgAt=     5 MxSgA2=     5.
 Leave Link  302 at Thu May  5 14:00:26 2016, MaxMem=  3221225472 cpu:        16.8
 (Enter /usr/local/Gaussian/gaussian-09-D01-sse4_2/g09/l303.exe)
 DipDrv:  MaxL=1.
 Leave Link  303 at Thu May  5 14:00:26 2016, MaxMem=  3221225472 cpu:         0.1
 (Enter /usr/local/Gaussian/gaussian-09-D01-sse4_2/g09/linda-exe/l401.exel)
 Initial guess from the checkpoint file:  "NiDMSO12.chk"
 B after Tr=    -0.002097   -0.002872    0.000536
         Rot=    1.000000    0.000000    0.000000    0.000000 Ang=   0.00 deg.
 Guess basis will be translated and rotated to current coordinates.
 JPrj=2 DoOrth=T DoCkMO=T.
 Initial guess <Sx>= 0.0000 <Sy>= 0.0000 <Sz>= 1.0000 <S**2>= 2.0052 S= 1.0017
 Generating alternative initial guess.
 ExpMin= 4.68D-02 ExpMax= 3.52D+05 ExpMxC= 3.39D+03 IAcc=2 IRadAn=         4 AccDes= 0.00D+00
 Harris functional with IExCor=  402 and IRadAn=       4 diagonalized for initial guess.
 HarFok:  IExCor=  402 AccDes= 0.00D+00 IRadAn=         4 IDoV= 1 UseB2=F ITyADJ=14
 ICtDFT=  3500011 ScaDFX=  1.000000  1.000000  1.000000  1.000000
 FoFCou: FMM=F IPFlag=           0 FMFlag=      100000 FMFlg1=           0
         NFxFlg=           0 DoJE=T BraDBF=F KetDBF=T FulRan=T
         wScrn=  0.000000 ICntrl=     500 IOpCl=  0 I1Cent=   200000004 NGrid=           0
         NMat0=    1 NMatS0=      1 NMatT0=    0 NMatD0=    1 NMtDS0=    0 NMtDT0=    0
 Symmetry not used in FoFCou.
 Harris En= -3349.55339849576    
 Leave Link  401 at Thu May  5 14:00:27 2016, MaxMem=  3221225472 cpu:         1.9
 (Enter /usr/local/Gaussian/gaussian-09-D01-sse4_2/g09/linda-exe/l502.exel)
 UHF open shell SCF:
 Using DIIS extrapolation, IDIIS=  1040.
 Two-electron integral symmetry not used.
 Keep R1 and R2 ints in memory in canonical form, NReq=356045174.
 IVT=      153792 IEndB=      153792 NGot=  3221225472 MDV=  2870577119
 LenX=  2870577119 LenY=  2870528278
 Requested convergence on RMS density matrix=1.00D-08 within  64 cycles.
 Requested convergence on MAX density matrix=1.00D-06.
 Requested convergence on             energy=1.00D-06.
 No special actions if energy rises.
 FoFCou: FMM=F IPFlag=           0 FMFlag=           0 FMFlg1=           0
         NFxFlg=           0 DoJE=F BraDBF=F KetDBF=F FulRan=T
         wScrn=  0.000000 ICntrl=     600 IOpCl=  0 I1Cent=           0 NGrid=           0
         NMat0=    1 NMatS0=  18721 NMatT0=    0 NMatD0=    1 NMtDS0=    0 NMtDT0=    0
 Symmetry not used in FoFCou.

 Cycle   1  Pass 1  IDiag  1:
 Inv3:  Mode=1 IEnd=     2811072.
 Iteration    1 A*A^-1 deviation from unit magnitude is 4.44D-15 for    962.
 Iteration    1 A*A^-1 deviation from orthogonality  is 1.71D-15 for    919    678.
 Iteration    1 A^-1*A deviation from unit magnitude is 4.88D-15 for    962.
 Iteration    1 A^-1*A deviation from orthogonality  is 1.47D-15 for    909    668.
 E= -3349.80595179619    
 DIIS: error= 3.91D-03 at cycle   1 NSaved=   1.
 NSaved= 1 IEnMin= 1 EnMin= -3349.80595179619     IErMin= 1 ErrMin= 3.91D-03
 ErrMax= 3.91D-03  0.00D+00 EMaxC= 1.00D-01 BMatC= 9.89D-03 BMatP= 9.89D-03
 IDIUse=3 WtCom= 9.61D-01 WtEn= 3.91D-02
 Coeff-Com:  0.100D+01
 Coeff-En:   0.100D+01
 Coeff:      0.100D+01
 Gap=     0.437 Goal=   None    Shift=    0.000
 Gap=     0.427 Goal=   None    Shift=    0.000
 GapD=    0.427 DampG=2.000 DampE=1.000 DampFc=2.0000 IDamp=-1.
 RMSDP=3.40D-04 MaxDP=6.04D-03              OVMax= 1.70D-02

 Cycle   2  Pass 1  IDiag  1:
 E= -3349.80635593393     Delta-E=       -0.000404137741 Rises=F Damp=F
 DIIS: error= 4.62D-03 at cycle   2 NSaved=   2.
 NSaved= 2 IEnMin= 2 EnMin= -3349.80635593393     IErMin= 1 ErrMin= 3.91D-03
 ErrMax= 4.62D-03  0.00D+00 EMaxC= 1.00D-01 BMatC= 1.69D-02 BMatP= 9.89D-03
 IDIUse=3 WtCom= 1.28D-01 WtEn= 8.72D-01
 Coeff-Com:  0.591D+00 0.409D+00
 Coeff-En:   0.399D+00 0.601D+00
 Coeff:      0.423D+00 0.577D+00
 Gap=     0.274 Goal=   None    Shift=    0.000
 Gap=     0.142 Goal=   None    Shift=    0.000
 RMSDP=2.55D-04 MaxDP=1.01D-02 DE=-4.04D-04 OVMax= 3.21D-02

 Cycle   3  Pass 1  IDiag  1:
 E= -3349.80523946097     Delta-E=        0.001116472966 Rises=F Damp=F
 DIIS: error= 5.82D-03 at cycle   3 NSaved=   3.
 NSaved= 3 IEnMin= 2 EnMin= -3349.80635593393     IErMin= 1 ErrMin= 3.91D-03
 ErrMax= 5.82D-03  0.00D+00 EMaxC= 1.00D-01 BMatC= 2.81D-02 BMatP= 9.89D-03
 IDIUse=3 WtCom= 1.16D-01 WtEn= 8.84D-01
 Coeff-Com:  0.329D-01 0.550D+00 0.417D+00
 Coeff-En:   0.000D+00 0.590D+00 0.410D+00
 Coeff:      0.381D-02 0.585D+00 0.411D+00
 Gap=     0.279 Goal=   None    Shift=    0.000
 Gap=     0.137 Goal=   None    Shift=    0.000
 RMSDP=1.53D-04 MaxDP=5.95D-03 DE= 1.12D-03 OVMax= 1.36D-02

 Cycle   4  Pass 1  IDiag  1:
 E= -3349.80793900403     Delta-E=       -0.002699543067 Rises=F Damp=F
 DIIS: error= 5.74D-04 at cycle   4 NSaved=   4.
 NSaved= 4 IEnMin= 4 EnMin= -3349.80793900403     IErMin= 4 ErrMin= 5.74D-04
 ErrMax= 5.74D-04  0.00D+00 EMaxC= 1.00D-01 BMatC= 3.12D-04 BMatP= 9.89D-03
 IDIUse=3 WtCom= 9.94D-01 WtEn= 5.74D-03
 Coeff-Com: -0.101D-01 0.258D+00 0.150D+00 0.602D+00
 Coeff-En:   0.000D+00 0.000D+00 0.000D+00 0.100D+01
 Coeff:     -0.100D-01 0.257D+00 0.149D+00 0.604D+00
 Gap=     0.279 Goal=   None    Shift=    0.000
 Gap=     0.137 Goal=   None    Shift=    0.000
 RMSDP=2.33D-05 MaxDP=9.06D-04 DE=-2.70D-03 OVMax= 2.07D-03

 Cycle   5  Pass 1  IDiag  1:
 E= -3349.80797824837     Delta-E=       -0.000039244339 Rises=F Damp=F
 DIIS: error= 1.81D-04 at cycle   5 NSaved=   5.
 NSaved= 5 IEnMin= 5 EnMin= -3349.80797824837     IErMin= 5 ErrMin= 1.81D-04
 ErrMax= 1.81D-04  0.00D+00 EMaxC= 1.00D-01 BMatC= 3.18D-05 BMatP= 3.12D-04
 IDIUse=3 WtCom= 9.98D-01 WtEn= 1.81D-03
 Coeff-Com: -0.384D-03-0.537D-01-0.776D-01 0.337D-01 0.110D+01
 Coeff-En:   0.000D+00 0.000D+00 0.000D+00 0.000D+00 0.100D+01
 Coeff:     -0.384D-03-0.536D-01-0.775D-01 0.336D-01 0.110D+01
 Gap=     0.279 Goal=   None    Shift=    0.000
 Gap=     0.138 Goal=   None    Shift=    0.000
 RMSDP=1.66D-05 MaxDP=1.28D-03 DE=-3.92D-05 OVMax= 2.94D-03

 Cycle   6  Pass 1  IDiag  1:
 E= -3349.80798703041     Delta-E=       -0.000008782037 Rises=F Damp=F
 DIIS: error= 6.91D-05 at cycle   6 NSaved=   6.
 NSaved= 6 IEnMin= 6 EnMin= -3349.80798703041     IErMin= 6 ErrMin= 6.91D-05
 ErrMax= 6.91D-05  0.00D+00 EMaxC= 1.00D-01 BMatC= 1.09D-06 BMatP= 3.18D-05
 IDIUse=1 WtCom= 1.00D+00 WtEn= 0.00D+00
 Coeff-Com:  0.774D-03-0.207D-01-0.122D-01-0.383D-01 0.259D-01 0.104D+01
 Coeff:      0.774D-03-0.207D-01-0.122D-01-0.383D-01 0.259D-01 0.104D+01
 Gap=     0.279 Goal=   None    Shift=    0.000
 Gap=     0.138 Goal=   None    Shift=    0.000
 RMSDP=9.01D-06 MaxDP=8.03D-04 DE=-8.78D-06 OVMax= 2.13D-03

 Cycle   7  Pass 1  IDiag  1:
 E= -3349.80798895866     Delta-E=       -0.000001928246 Rises=F Damp=F
 DIIS: error= 5.10D-05 at cycle   7 NSaved=   7.
 NSaved= 7 IEnMin= 7 EnMin= -3349.80798895866     IErMin= 7 ErrMin= 5.10D-05
 ErrMax= 5.10D-05  0.00D+00 EMaxC= 1.00D-01 BMatC= 6.96D-07 BMatP= 1.09D-06
 IDIUse=1 WtCom= 1.00D+00 WtEn= 0.00D+00
 Coeff-Com:  0.511D-03 0.595D-02 0.159D-01-0.312D-01-0.347D+00 0.302D+00
 Coeff-Com:  0.105D+01
 Coeff:      0.511D-03 0.595D-02 0.159D-01-0.312D-01-0.347D+00 0.302D+00
 Coeff:      0.105D+01
 Gap=     0.279 Goal=   None    Shift=    0.000
 Gap=     0.138 Goal=   None    Shift=    0.000
 RMSDP=8.66D-06 MaxDP=8.24D-04 DE=-1.93D-06 OVMax= 2.08D-03

 Cycle   8  Pass 1  IDiag  1:
 E= -3349.80799017697     Delta-E=       -0.000001218315 Rises=F Damp=F
 DIIS: error= 2.69D-05 at cycle   8 NSaved=   8.
 NSaved= 8 IEnMin= 8 EnMin= -3349.80799017697     IErMin= 8 ErrMin= 2.69D-05
 ErrMax= 2.69D-05  0.00D+00 EMaxC= 1.00D-01 BMatC= 1.67D-07 BMatP= 6.96D-07
 IDIUse=1 WtCom= 1.00D+00 WtEn= 0.00D+00
 Coeff-Com: -0.441D-03 0.169D-01 0.133D-01 0.196D-01-0.793D-01-0.536D+00
 Coeff-Com:  0.116D+00 0.145D+01
 Coeff:     -0.441D-03 0.169D-01 0.133D-01 0.196D-01-0.793D-01-0.536D+00
 Coeff:      0.116D+00 0.145D+01
 Gap=     0.279 Goal=   None    Shift=    0.000
 Gap=     0.138 Goal=   None    Shift=    0.000
 RMSDP=8.79D-06 MaxDP=8.48D-04 DE=-1.22D-06 OVMax= 2.15D-03

 Cycle   9  Pass 1  IDiag  1:
 E= -3349.80799068153     Delta-E=       -0.000000504560 Rises=F Damp=F
 DIIS: error= 6.61D-06 at cycle   9 NSaved=   9.
 NSaved= 9 IEnMin= 9 EnMin= -3349.80799068153     IErMin= 9 ErrMin= 6.61D-06
 ErrMax= 6.61D-06  0.00D+00 EMaxC= 1.00D-01 BMatC= 4.33D-08 BMatP= 1.67D-07
 IDIUse=1 WtCom= 1.00D+00 WtEn= 0.00D+00
 Coeff-Com: -0.117D-03 0.121D-02 0.134D-03 0.603D-02 0.455D-01-0.136D+00
 Coeff-Com: -0.714D-01 0.160D+00 0.995D+00
 Coeff:     -0.117D-03 0.121D-02 0.134D-03 0.603D-02 0.455D-01-0.136D+00
 Coeff:     -0.714D-01 0.160D+00 0.995D+00
 Gap=     0.279 Goal=   None    Shift=    0.000
 Gap=     0.138 Goal=   None    Shift=    0.000
 RMSDP=1.45D-06 MaxDP=1.24D-04 DE=-5.05D-07 OVMax= 3.46D-04

 Cycle  10  Pass 1  IDiag  1:
 E= -3349.80799070469     Delta-E=       -0.000000023159 Rises=F Damp=F
 DIIS: error= 3.29D-06 at cycle  10 NSaved=  10.
 NSaved=10 IEnMin=10 EnMin= -3349.80799070469     IErMin=10 ErrMin= 3.29D-06
 ErrMax= 3.29D-06  0.00D+00 EMaxC= 1.00D-01 BMatC= 3.57D-09 BMatP= 4.33D-08
 IDIUse=1 WtCom= 1.00D+00 WtEn= 0.00D+00
 Coeff-Com:  0.347D-05-0.129D-02-0.117D-02 0.522D-04 0.232D-01 0.723D-02
 Coeff-Com: -0.306D-01-0.997D-01 0.335D+00 0.768D+00
 Coeff:      0.347D-05-0.129D-02-0.117D-02 0.522D-04 0.232D-01 0.723D-02
 Coeff:     -0.306D-01-0.997D-01 0.335D+00 0.768D+00
 Gap=     0.279 Goal=   None    Shift=    0.000
 Gap=     0.138 Goal=   None    Shift=    0.000
 RMSDP=3.97D-07 MaxDP=2.29D-05 DE=-2.32D-08 OVMax= 8.72D-05

 Cycle  11  Pass 1  IDiag  1:
 E= -3349.80799070939     Delta-E=       -0.000000004697 Rises=F Damp=F
 DIIS: error= 3.05D-06 at cycle  11 NSaved=  11.
 NSaved=11 IEnMin=11 EnMin= -3349.80799070939     IErMin=11 ErrMin= 3.05D-06
 ErrMax= 3.05D-06  0.00D+00 EMaxC= 1.00D-01 BMatC= 1.42D-09 BMatP= 3.57D-09
 IDIUse=1 WtCom= 1.00D+00 WtEn= 0.00D+00
 Coeff-Com:  0.208D-04-0.435D-03-0.237D-03-0.104D-02-0.467D-02 0.244D-01
 Coeff-Com:  0.433D-02-0.364D-01-0.102D+00 0.126D+00 0.990D+00
 Coeff:      0.208D-04-0.435D-03-0.237D-03-0.104D-02-0.467D-02 0.244D-01
 Coeff:      0.433D-02-0.364D-01-0.102D+00 0.126D+00 0.990D+00
 Gap=     0.279 Goal=   None    Shift=    0.000
 Gap=     0.138 Goal=   None    Shift=    0.000
 RMSDP=3.92D-07 MaxDP=2.66D-05 DE=-4.70D-09 OVMax= 8.89D-05

 Cycle  12  Pass 1  IDiag  1:
 E= -3349.80799071378     Delta-E=       -0.000000004395 Rises=F Damp=F
 DIIS: error= 2.79D-06 at cycle  12 NSaved=  12.
 NSaved=12 IEnMin=12 EnMin= -3349.80799071378     IErMin=12 ErrMin= 2.79D-06
 ErrMax= 2.79D-06  0.00D+00 EMaxC= 1.00D-01 BMatC= 1.06D-09 BMatP= 1.42D-09
 IDIUse=1 WtCom= 1.00D+00 WtEn= 0.00D+00
 Coeff-Com: -0.326D-05 0.871D-03 0.747D-03 0.596D-04-0.149D-01-0.720D-02
 Coeff-Com:  0.178D-01 0.719D-01-0.211D+00-0.486D+00-0.295D-01 0.166D+01
 Coeff:     -0.326D-05 0.871D-03 0.747D-03 0.596D-04-0.149D-01-0.720D-02
 Coeff:      0.178D-01 0.719D-01-0.211D+00-0.486D+00-0.295D-01 0.166D+01
 Gap=     0.279 Goal=   None    Shift=    0.000
 Gap=     0.138 Goal=   None    Shift=    0.000
 RMSDP=7.62D-07 MaxDP=5.20D-05 DE=-4.39D-09 OVMax= 1.73D-04

 Cycle  13  Pass 1  IDiag  1:
 E= -3349.80799072117     Delta-E=       -0.000000007388 Rises=F Damp=F
 DIIS: error= 2.27D-06 at cycle  13 NSaved=  13.
 NSaved=13 IEnMin=13 EnMin= -3349.80799072117     IErMin=13 ErrMin= 2.27D-06
 ErrMax= 2.27D-06  0.00D+00 EMaxC= 1.00D-01 BMatC= 7.74D-10 BMatP= 1.06D-09
 IDIUse=1 WtCom= 1.00D+00 WtEn= 0.00D+00
 Coeff-Com: -0.484D-04 0.110D-02 0.667D-03 0.244D-02 0.108D-01-0.542D-01
 Coeff-Com: -0.906D-03 0.706D-01 0.198D+00-0.373D+00-0.221D+01 0.380D+00
 Coeff-Com:  0.297D+01
 Coeff:     -0.484D-04 0.110D-02 0.667D-03 0.244D-02 0.108D-01-0.542D-01
 Coeff:     -0.906D-03 0.706D-01 0.198D+00-0.373D+00-0.221D+01 0.380D+00
 Coeff:      0.297D+01
 Gap=     0.279 Goal=   None    Shift=    0.000
 Gap=     0.138 Goal=   None    Shift=    0.000
 RMSDP=2.42D-06 MaxDP=1.66D-04 DE=-7.39D-09 OVMax= 5.49D-04

 Cycle  14  Pass 1  IDiag  1:
 E= -3349.80799073450     Delta-E=       -0.000000013325 Rises=F Damp=F
 DIIS: error= 5.45D-07 at cycle  14 NSaved=  14.
 NSaved=14 IEnMin=14 EnMin= -3349.80799073450     IErMin=14 ErrMin= 5.45D-07
 ErrMax= 5.45D-07  0.00D+00 EMaxC= 1.00D-01 BMatC= 6.66D-11 BMatP= 7.74D-10
 IDIUse=1 WtCom= 1.00D+00 WtEn= 0.00D+00
 Coeff-Com: -0.330D-05-0.134D-03-0.127D-03 0.132D-03 0.477D-02-0.316D-02
 Coeff-Com: -0.365D-02-0.139D-01 0.735D-01 0.762D-01-0.165D+00-0.405D+00
 Coeff-Com:  0.246D+00 0.119D+01
 Coeff:     -0.330D-05-0.134D-03-0.127D-03 0.132D-03 0.477D-02-0.316D-02
 Coeff:     -0.365D-02-0.139D-01 0.735D-01 0.762D-01-0.165D+00-0.405D+00
 Coeff:      0.246D+00 0.119D+01
 Gap=     0.279 Goal=   None    Shift=    0.000
 Gap=     0.138 Goal=   None    Shift=    0.000
 RMSDP=7.54D-07 MaxDP=5.20D-05 DE=-1.33D-08 OVMax= 1.70D-04

 Cycle  15  Pass 1  IDiag  1:
 E= -3349.80799073545     Delta-E=       -0.000000000955 Rises=F Damp=F
 DIIS: error= 1.87D-07 at cycle  15 NSaved=  15.
 NSaved=15 IEnMin=15 EnMin= -3349.80799073545     IErMin=15 ErrMin= 1.87D-07
 ErrMax= 1.87D-07  0.00D+00 EMaxC= 1.00D-01 BMatC= 8.43D-12 BMatP= 6.66D-11
 IDIUse=1 WtCom= 1.00D+00 WtEn= 0.00D+00
 Coeff-Com:  0.285D-05-0.116D-03-0.777D-04-0.157D-03 0.293D-03 0.353D-02
 Coeff-Com: -0.145D-02-0.777D-02 0.128D-02 0.456D-01 0.129D+00-0.137D+00
 Coeff-Com: -0.153D+00 0.286D+00 0.834D+00
 Coeff:      0.285D-05-0.116D-03-0.777D-04-0.157D-03 0.293D-03 0.353D-02
 Coeff:     -0.145D-02-0.777D-02 0.128D-02 0.456D-01 0.129D+00-0.137D+00
 Coeff:     -0.153D+00 0.286D+00 0.834D+00
 Gap=     0.279 Goal=   None    Shift=    0.000
 Gap=     0.138 Goal=   None    Shift=    0.000
 RMSDP=6.70D-08 MaxDP=4.72D-06 DE=-9.55D-10 OVMax= 1.36D-05

 Cycle  16  Pass 1  IDiag  1:
 E= -3349.80799073550     Delta-E=       -0.000000000045 Rises=F Damp=F
 DIIS: error= 1.61D-07 at cycle  16 NSaved=  16.
 NSaved=16 IEnMin=16 EnMin= -3349.80799073550     IErMin=16 ErrMin= 1.61D-07
 ErrMax= 1.61D-07  0.00D+00 EMaxC= 1.00D-01 BMatC= 4.03D-12 BMatP= 8.43D-12
 IDIUse=1 WtCom= 1.00D+00 WtEn= 0.00D+00
 Coeff-Com:  0.114D-05-0.667D-05 0.197D-05-0.610D-04-0.747D-03 0.144D-02
 Coeff-Com:  0.196D-03 0.553D-03-0.118D-01-0.210D-02 0.564D-01 0.328D-01
 Coeff-Com: -0.715D-01-0.132D+00 0.201D+00 0.926D+00
 Coeff:      0.114D-05-0.667D-05 0.197D-05-0.610D-04-0.747D-03 0.144D-02
 Coeff:      0.196D-03 0.553D-03-0.118D-01-0.210D-02 0.564D-01 0.328D-01
 Coeff:     -0.715D-01-0.132D+00 0.201D+00 0.926D+00
 Gap=     0.279 Goal=   None    Shift=    0.000
 Gap=     0.138 Goal=   None    Shift=    0.000
 RMSDP=2.24D-08 MaxDP=1.58D-06 DE=-4.50D-11 OVMax= 4.72D-06

 Cycle  17  Pass 1  IDiag  1:
 E= -3349.80799073549     Delta-E=        0.000000000003 Rises=F Damp=F
 DIIS: error= 1.39D-07 at cycle  17 NSaved=  17.
 NSaved=17 IEnMin=16 EnMin= -3349.80799073550     IErMin=17 ErrMin= 1.39D-07
 ErrMax= 1.39D-07  0.00D+00 EMaxC= 1.00D-01 BMatC= 2.77D-12 BMatP= 4.03D-12
 IDIUse=1 WtCom= 1.00D+00 WtEn= 0.00D+00
 Coeff-Com: -0.139D-05 0.601D-04 0.392D-04 0.790D-04-0.221D-03-0.176D-02
 Coeff-Com:  0.951D-03 0.376D-02-0.806D-03-0.233D-01-0.620D-01 0.723D-01
 Coeff-Com:  0.705D-01-0.150D+00-0.422D+00 0.471D-01 0.146D+01
 Coeff:     -0.139D-05 0.601D-04 0.392D-04 0.790D-04-0.221D-03-0.176D-02
 Coeff:      0.951D-03 0.376D-02-0.806D-03-0.233D-01-0.620D-01 0.723D-01
 Coeff:      0.705D-01-0.150D+00-0.422D+00 0.471D-01 0.146D+01
 Gap=     0.279 Goal=   None    Shift=    0.000
 Gap=     0.138 Goal=   None    Shift=    0.000
 RMSDP=3.26D-08 MaxDP=2.02D-06 DE= 2.73D-12 OVMax= 7.24D-06

 Cycle  18  Pass 1  IDiag  1:
 E= -3349.80799073550     Delta-E=       -0.000000000010 Rises=F Damp=F
 DIIS: error= 1.06D-07 at cycle  18 NSaved=  18.
 NSaved=18 IEnMin=18 EnMin= -3349.80799073550     IErMin=18 ErrMin= 1.06D-07
 ErrMax= 1.06D-07  0.00D+00 EMaxC= 1.00D-01 BMatC= 1.76D-12 BMatP= 2.77D-12
 IDIUse=1 WtCom= 1.00D+00 WtEn= 0.00D+00
 Coeff-Com: -0.120D-05 0.167D-04 0.481D-05 0.714D-04 0.697D-03-0.166D-02
 Coeff-Com: -0.474D-04 0.204D-04 0.107D-01-0.103D-02-0.614D-01-0.189D-01
 Coeff-Com:  0.742D-01 0.105D+00-0.259D+00-0.811D+00 0.288D+00 0.168D+01
[...]
 Rotational constants (GHZ):           1.12933     0.98251     0.91928
 Zero-point vibrational energy       9101.7 (Joules/Mol)
                                    2.17535 (Kcal/Mol)
 Warning -- explicit consideration of   9 degrees of freedom as
           vibrations may cause significant error
 Vibrational temperatures:    111.06   112.72   136.90   169.35   177.31
          (Kelvin)            343.04   363.99   385.44   389.54
 
 Zero-point correction=                           0.003467 (Hartree/Particle)
 Thermal correction to Energy=                    0.011897
 Thermal correction to Enthalpy=                  0.012841
 Thermal correction to Gibbs Free Energy=        -0.033924
 Sum of electronic and zero-point Energies=          -3349.814800
 Sum of electronic and thermal Energies=             -3349.806370
 Sum of electronic and thermal Enthalpies=           -3349.805426
 Sum of electronic and thermal Free Energies=        -3349.852191
 
                     E (Thermal)             CV                S
                      KCal/Mol        Cal/Mol-Kelvin    Cal/Mol-Kelvin
 Total                    7.465             22.705             98.425
 Electronic               0.000              0.000              2.183
 Translational            0.889              2.981             41.751
 Rotational               0.889              2.981             30.134
 Vibrational              5.688             16.744             24.356
 Vibration     1          0.599              1.964              3.961
 Vibration     2          0.600              1.964              3.932
 Vibration     3          0.603              1.953              3.551
 Vibration     4          0.608              1.935              3.138
 Vibration     5          0.610              1.930              3.049
 Vibration     6          0.656              1.782              1.815
 Vibration     7          0.664              1.758              1.710
 Vibration     8          0.673              1.732              1.610
 Vibration     9          0.674              1.727              1.591
                       Q            Log10(Q)             Ln(Q)
 Total Bot       0.401663D+16         15.603861         35.929219
 Total V=0       0.157908D+18         17.198404         39.600788
 Vib (Bot)       0.142476D+02          1.153743          2.656590
 Vib (Bot)    1  0.266920D+01          0.426381          0.981779
 Vib (Bot)    2  0.262933D+01          0.419845          0.966730
 Vib (Bot)    3  0.215882D+01          0.334217          0.769564
 Vib (Bot)    4  0.173707D+01          0.239818          0.552202
 Vib (Bot)    5  0.165700D+01          0.219323          0.505009
 Vib (Bot)    6  0.822979D+00         -0.084611         -0.194824
 Vib (Bot)    7  0.770380D+00         -0.113295         -0.260871
 Vib (Bot)    8  0.722172D+00         -0.141360         -0.325492
 Vib (Bot)    9  0.713548D+00         -0.146577         -0.337505
 Vib (V=0)       0.560125D+03          2.748285          6.328160
 Vib (V=0)    1  0.321563D+01          0.507266          1.168022
 Vib (V=0)    2  0.317645D+01          0.501942          1.155764
 Vib (V=0)    3  0.271597D+01          0.433925          0.999149
 Vib (V=0)    4  0.230760D+01          0.363161          0.836209
 Vib (V=0)    5  0.223080D+01          0.348460          0.802358
 Vib (V=0)    6  0.146296D+01          0.165233          0.380463
 Vib (V=0)    7  0.141841D+01          0.151803          0.349540
 Vib (V=0)    8  0.137837D+01          0.139365          0.320901
 Vib (V=0)    9  0.137129D+01          0.137130          0.315754
 Electronic      0.300000D+01          0.477121          1.098612
 Translational   0.109353D+09          8.038830         18.510090
 Rotational      0.859345D+06          5.934168         13.663926
 
                              Preliminary low-level optimization and frequencies 
 (high-spin, octahedral)
                                                             IR Spectrum
 
                                                                                                                                     
     2 2      2      2                                                     1 1                                                       
     7 6      5      3                                                     2 1          9      77                                    
     1 8      3      8                                                     3 8          5      87                                    
 
     X X      X      X                                                     X X          X      X                                     
     X X      X      X                                                       X                                                       
     X X      X                                                                                                                      
     X X      X                                                                                                                      
     X X      X                                                                                                                      
     X X      X                                                                                                                      
     X X      X                                                                                                                      
     X X      X                                                                                                                      
     X X      X                                                                                                                      
     X X      X                                                                                                                      
     X X      X                                                                                                                      
     X X      X                                                                                                                      
              X                                                                                                                      
              X                                                                                                                      
              X                                                                                                                      
              X                                                                                                                      
              X                                                                                                                      
              X                                                                                                                      
              X                                                                                                                      
              X                                                                                                                      
 
 ***** Axes restored to original set *****
 -------------------------------------------------------------------
 Center     Atomic                   Forces (Hartrees/Bohr)
 Number     Number              X              Y              Z
 -------------------------------------------------------------------
      1       28          -0.000536070   -0.001618289   -0.000063803
      2       17           0.000197331    0.000291413    0.000286133
      3       17           0.000379536    0.000339301    0.000016564
      4       17          -0.000230763    0.000704240    0.000018449
      5       17           0.000189965    0.000283335   -0.000257343
 -------------------------------------------------------------------
 Cartesian Forces:  Max     0.001618289 RMS     0.000523298
 Force constants in Cartesian coordinates: 
                1             2             3             4             5 
      1  0.800854D-01
      2  0.119030D-02  0.791099D-01
      3  0.837517D-04 -0.340107D-03  0.780852D-01
      4 -0.116451D-01 -0.871033D-02 -0.128898D-01  0.109952D-01
      5 -0.904730D-02 -0.180629D-01 -0.184695D-01  0.106501D-01  0.187723D-01
      6 -0.116461D-01 -0.165302D-01 -0.331074D-01  0.159143D-01  0.226050D-01
      7 -0.135627D-01  0.139290D-01 -0.722985D-04  0.185505D-02  0.967981D-04
      8  0.100793D-01 -0.349299D-01  0.315114D-03 -0.148128D-02 -0.354031D-02
      9 -0.543858D-04  0.267645D-03 -0.626961D-02  0.788470D-04 -0.350735D-02
     10 -0.432574D-01  0.234717D-02  0.145060D-04 -0.225282D-02 -0.281381D-02
     11  0.682847D-02 -0.791756D-02  0.454446D-05 -0.156549D-02  0.101703D-02
     12  0.000000D+00  0.000000D+00 -0.589450D-02 -0.335620D-02 -0.116206D-02
     13 -0.116202D-01 -0.875615D-02  0.128639D-01  0.104766D-02  0.111420D-02
     14 -0.905077D-02 -0.181996D-01  0.184899D-01  0.110699D-02  0.181384D-02
     15  0.116160D-01  0.166019D-01 -0.328137D-01  0.252841D-03  0.533911D-03
                6             7             8             9            10 
      6  0.418957D-01
      7  0.450113D-03  0.158974D-01
      8 -0.443543D-02 -0.169773D-01  0.435839D-01
      9 -0.140598D-02  0.427235D-04 -0.300542D-03  0.672605D-02
     10 -0.442146D-02 -0.604815D-02  0.980315D-02  0.141056D-04  0.537976D-01
     11 -0.116109D-02  0.283312D-02 -0.149742D-02  0.000000D+00 -0.654587D-02
     12 -0.141104D-02  0.151263D-04  0.121149D-04  0.227956D-02 -0.229893D-04
     13 -0.296883D-03  0.185844D-02 -0.142389D-02 -0.812902D-04 -0.223921D-02
     14 -0.478199D-03  0.118353D-03 -0.361626D-02  0.354079D-02 -0.279065D-02
     15 -0.597131D-02 -0.435664D-03  0.440874D-02 -0.133002D-02  0.441584D-02
               11            12            13            14            15 
     11  0.734850D-02
     12 -0.424799D-05  0.642088D-02
     13 -0.155024D-02  0.336335D-02  0.109533D-01
     14  0.104945D-02  0.115337D-02  0.106161D-01  0.189525D-01
     15  0.116134D-02 -0.139491D-02 -0.158490D-01 -0.227059D-01  0.415099D-01
 FormGI is forming the generalized inverse of G from B-inverse, IUseBI=4.
 Force constants in internal coordinates: 
                1             2             3             4             5 
      1  0.628219D-01
      2  0.558472D-02  0.516436D-01
      3  0.546321D-02  0.116594D-01  0.547738D-01
      4  0.418248D-02  0.558336D-02  0.544539D-02  0.626312D-01
      5  0.166243D-02  0.988831D-03 -0.215589D-04 -0.640919D-03  0.791876D-02
      6  0.230202D-02  0.141486D-03  0.543396D-03 -0.195859D-02 -0.386813D-02
      7  0.334361D-02 -0.235441D-02 -0.109224D-02  0.259839D-03 -0.462284D-02
      8 -0.188024D-02 -0.227322D-02 -0.607150D-03 -0.502335D-02 -0.363311D-02
      9 -0.205137D-02  0.316343D-02 -0.312695D-03  0.397209D-02 -0.370831D-02
     10 -0.222989D-02 -0.426578D-04  0.126425D-02  0.407668D-02  0.707480D-02
     11 -0.354465D-02  0.279390D-03 -0.599831D-04  0.753514D-02 -0.464733D-02
     12  0.236304D-02  0.146404D-02 -0.598307D-03  0.104267D-02  0.542425D-02
     13 -0.298688D-02  0.803936D-03 -0.690263D-03  0.396041D-03  0.324503D-02
     14 -0.534992D-02 -0.660104D-03 -0.919558D-04 -0.646634D-03 -0.217921D-02
                6             7             8             9            10 
      6  0.120353D-01
      7 -0.729223D-02  0.494518D-01
      8 -0.751469D-03  0.655932D-02  0.188842D-01
      9  0.587667D-02 -0.171434D-01 -0.104448D-01  0.341431D-01
     10 -0.792453D-02 -0.141063D-01 -0.111001D-01 -0.122053D-01  0.357497D-01
     11 -0.706057D-02  0.972043D-02 -0.984016D-02  0.803268D-02  0.768500D-02
     12 -0.484077D-02  0.780672D-02 -0.573900D-02  0.309626D-02 -0.291072D-02
     13 -0.722434D-02 -0.587035D-02  0.279307D-02  0.536246D-02 -0.273513D-03
     14 -0.238357D-02 -0.136771D-01  0.853207D-02  0.226620D-02  0.263720D-02
               11            12            13            14 
     11  0.236280D-01
     12  0.210300D-02  0.105228D-01
     13  0.801675D-03  0.347042D-02  0.105236D-01
     14 -0.130133D-02 -0.705240D-02  0.705321D-02  0.141056D-01
 Leave Link  716 at Thu May  5 14:09:57 2016, MaxMem=  3221225472 cpu:         0.1
 (Enter /usr/local/Gaussian/gaussian-09-D01-sse4_2/g09/l103.exe)

 GradGradGradGradGradGradGradGradGradGradGradGradGradGradGradGradGradGrad
 Berny optimization.
 Red2BG is reusing G-inverse.
 Internal  Forces:  Max     0.001094978 RMS     0.000489112
 Search for a local minimum.
 Step number   1 out of a maximum of    2
 All quantities printed in internal units (Hartrees-Bohrs-Radians)
 Second derivative matrix not updated -- analytic derivatives used.
 The second derivative matrix:
                          R1        R2        R3        R4        A1
           R1           0.06282
           R2           0.00558   0.05164
           R3           0.00546   0.01166   0.05477
           R4           0.00418   0.00558   0.00545   0.06263
           A1           0.00166   0.00099  -0.00002  -0.00064   0.00792
           A2           0.00230   0.00014   0.00054  -0.00196  -0.00387
           A3           0.00334  -0.00235  -0.00109   0.00026  -0.00462
           A4          -0.00188  -0.00227  -0.00061  -0.00502  -0.00363
           A5          -0.00205   0.00316  -0.00031   0.00397  -0.00371
           A6          -0.00223  -0.00004   0.00126   0.00408   0.00707
           D1          -0.00354   0.00028  -0.00006   0.00754  -0.00465
           D2           0.00236   0.00146  -0.00060   0.00104   0.00542
           D3          -0.00299   0.00080  -0.00069   0.00040   0.00325
           D4          -0.00535  -0.00066  -0.00009  -0.00065  -0.00218
                          A2        A3        A4        A5        A6
           A2           0.01204
           A3          -0.00729   0.04945
           A4          -0.00075   0.00656   0.01888
           A5           0.00588  -0.01714  -0.01044   0.03414
           A6          -0.00792  -0.01411  -0.01110  -0.01221   0.03575
           D1          -0.00706   0.00972  -0.00984   0.00803   0.00769
           D2          -0.00484   0.00781  -0.00574   0.00310  -0.00291
           D3          -0.00722  -0.00587   0.00279   0.00536  -0.00027
           D4          -0.00238  -0.01368   0.00853   0.00227   0.00264
                          D1        D2        D3        D4
           D1           0.02363
           D2           0.00210   0.01052
           D3           0.00080   0.00347   0.01052
           D4          -0.00130  -0.00705   0.00705   0.01411
 ITU=  0
     Eigenvalues ---    0.02120   0.02527   0.03939   0.04275   0.05169
     Eigenvalues ---    0.05440   0.06205   0.07332   0.07877
 Angle between quadratic step and forces=  15.69 degrees.
 Linear search not attempted -- first point.
 Iteration  1 RMS(Cart)=  0.01993089 RMS(Int)=  0.00021062
 Iteration  2 RMS(Cart)=  0.00019063 RMS(Int)=  0.00004043
 Iteration  3 RMS(Cart)=  0.00000000 RMS(Int)=  0.00004043
 ITry= 1 IFail=0 DXMaxC= 4.55D-02 DCOld= 1.00D+10 DXMaxT= 3.00D-01 DXLimC= 3.00D+00 Rises=F
 Variable       Old X    -DE/DX   Delta X   Delta X   Delta X     New X
                                 (Linear)    (Quad)   (Total)
    R1        4.39419   0.00044   0.00000   0.01070   0.01070   4.40489
    R2        4.41912  -0.00011   0.00000  -0.00347  -0.00347   4.41565
    R3        4.40364   0.00034   0.00000   0.00564   0.00564   4.40928
    R4        4.39508   0.00041   0.00000   0.00961   0.00961   4.40468
    A1        1.83825  -0.00020   0.00000  -0.00677  -0.00676   1.83149
    A2        1.83597  -0.00016   0.00000  -0.01080  -0.01084   1.82513
    A3        1.85115  -0.00016   0.00000  -0.00272  -0.00280   1.84835
    A4        2.23685   0.00109   0.00000   0.03106   0.03109   2.26794
    A5        1.83812  -0.00029   0.00000  -0.00552  -0.00557   1.83255
    A6        1.83479  -0.00046   0.00000  -0.00977  -0.00983   1.82496
    D1       -2.16724  -0.00045   0.00000  -0.00412  -0.00406  -2.17130
    D2        1.94336  -0.00041   0.00000  -0.01096  -0.01095   1.93241
    D3       -1.93943   0.00043   0.00000   0.01717   0.01713  -1.92230
    D4        2.40040   0.00084   0.00000   0.02813   0.02808   2.42848
         Item               Value     Threshold  Converged?
 Maximum Force            0.001095     0.000450     NO 
 RMS     Force            0.000489     0.000300     NO 
 Maximum Displacement     0.045483     0.001800     NO 
 RMS     Displacement     0.019888     0.001200     NO 
 Predicted change in Energy=-4.606189D-05
 GradGradGradGradGradGradGradGradGradGradGradGradGradGradGradGradGradGrad

 Leave Link  103 at Thu May  5 14:09:57 2016, MaxMem=  3221225472 cpu:         0.1
 (Enter /usr/local/Gaussian/gaussian-09-D01-sse4_2/g09/l9999.exe)
 1\1\GINC-NODE-022\Freq\UB3LYP\def2TZVP\Cl4Ni1(2-,3)\ROOT\05-May-2016\0
 \\#P Geom=AllCheck Guess=TCheck SCRF=Check GenChk UB3LYP/def2TZVP Freq
 \\Preliminary low-level optimization and frequencies (high-spin, octah
 edral)\\-2,3\Ni,-1.208004353,-2.6708751752,-0.0979604715\Cl,-0.4021985
 277,-1.527125403,1.7593407574\Cl,-0.0820599688,-4.7204646229,-0.098037
 8343\Cl,-3.5071549062,-2.2910904014,-0.0989438822\Cl,-0.4032818343,-1.
 5277686675,-1.9567118694\\Version=ES64L-G09RevD.01\State=3-A\HF=-3349.
 8182666\S2=2.004273\S2-1=0.\S2A=2.000011\RMSD=6.717e-09\RMSF=5.233e-04
 \ZeroPoint=0.0034666\Thermal=0.0118968\Dipole=-0.3176857,-0.4286151,0.
 0020194\DipoleDeriv=1.898281,-0.2647397,0.0002393,-0.2656441,1.7223454
 ,-0.0001213,0.0006667,0.0005729,1.534615,-0.7669426,-0.1127571,-0.1691
 422,-0.1100041,-0.8440204,-0.23994,-0.1821629,-0.2604707,-1.0854358,-0
 .897731,0.3117171,-0.0002124,0.3785158,-1.3057631,-0.0006174,-0.000590
 2,-0.0001148,-0.6818043,-1.4671434,0.1777641,-0.0002863,0.1073899,-0.7
 287099,0.000028,-0.000408,-0.0002048,-0.6812788,-0.7664639,-0.1119844,
 0.1694016,-0.1102574,-0.843852,0.2406507,0.1824944,0.2602175,-1.086096
 2\Polar=111.8156076,-7.5998893,106.6228285,0.0152461,-0.0015304,105.01
 0654\PG=C01 [X(Cl4Ni1)]\NImag=0\\0.08008537,0.00119030,0.07910985,0.00
 008375,-0.00034011,0.07808521,-0.01164510,-0.00871033,-0.01288982,0.01
 099521,-0.00904730,-0.01806285,-0.01846947,0.01065012,0.01877229,-0.01
 164610,-0.01653025,-0.03310739,0.01591433,0.02260496,0.04189572,-0.013
 56271,0.01392902,-0.00007230,0.00185505,0.00009680,0.00045011,0.015897
 38,0.01007930,-0.03492986,0.00031511,-0.00148128,-0.00354031,-0.004435
 43,-0.01697729,0.04358385,-0.00005439,0.00026765,-0.00626961,0.0000788
 5,-0.00350735,-0.00140598,0.00004272,-0.00030054,0.00672605,-0.0432574
 0,0.00234717,0.00001451,-0.00225282,-0.00281381,-0.00442146,-0.0060481
 5,0.00980315,0.00001411,0.05379757,0.00682847,-0.00791756,0.00000454,-
 0.00156549,0.00101703,-0.00116109,0.00283312,-0.00149742,-0.00000055,-
 0.00654587,0.00734850,0.00000071,0.00000082,-0.00589450,-0.00335620,-0
 .00116206,-0.00141104,0.00001513,0.00001211,0.00227956,-0.00002299,-0.
 00000425,0.00642088,-0.01162016,-0.00875615,0.01286386,0.00104766,0.00
 111420,-0.00029688,0.00185844,-0.00142389,-0.00008129,-0.00223921,-0.0
 0155024,0.00336335,0.01095327,-0.00905077,-0.01819957,0.01848992,0.001
 10699,0.00181384,-0.00047820,0.00011835,-0.00361626,0.00354079,-0.0027
 9065,0.00104945,0.00115337,0.01061608,0.01895255,0.01161602,0.01660189
 ,-0.03281371,0.00025284,0.00053391,-0.00597131,-0.00043566,0.00440874,
 -0.00133002,0.00441584,0.00116134,-0.00139491,-0.01584904,-0.02270588,
 0.04150994\\0.00053607,0.00161829,0.00006380,-0.00019733,-0.00029141,-
 0.00028613,-0.00037954,-0.00033930,-0.00001656,0.00023076,-0.00070424,
 -0.00001845,-0.00018997,-0.00028334,0.00025734\\\@


 K N O W I N G  IS A BARRIER WHICH PREVENTS LEARNING

                     -- TEACHING OF THE BENE GESSERIT
 Job cpu time:       0 days  0 hours  0 minutes  3.6 seconds.
 File lengths (MBytes):  RWF=     77 Int=      0 D2E=      0 Chk=      7 Scr=      1
 Normal termination of Gaussian 09 at Thu May  5 14:09:57 2016.
